ITEM: TIMESTEP
0
ITEM: NUMBER OF ATOMS
63
ITEM: BOX BOUNDS pp pp pp
0.0000000000000000e+00 1.0859999999999999e+01
0.0000000000000000e+00 1.0859999999999999e+01
0.0000000000000000e+00 1.0859999999999999e+01
ITEM: ATOMS id type xs ys zs
1 1 0 0 0
5 1 0.125 0.125 0.125
9 1 0.5 0 0
13 1 0.625 0.125 0.125
4 1 0.25 0.25 0
8 1 0.375 0.375 0.125
12 1 0.75 0.25 0
16 1 0.875 0.375 0.125
3 1 0.25 0 0.25
7 1 0.375 0.125 0.375
11 1 0.75 0 0.25
15 1 0.875 0.125 0.375
2 1 0 0.25 0.25
6 1 0.125 0.375 0.375
10 1 0.5 0.25 0.25
14 1 0.625 0.375 0.375
17 1 0 0 0.5
21 1 0.125 0.125 0.625
25 1 0.5 0 0.5
29 1 0.625 0.125 0.625
20 1 0.25 0.25 0.5
24 1 0.375 0.375 0.625
28 1 0.75 0.25 0.5
32 1 0.875 0.375 0.625
19 1 0.25 0 0.75
23 1 0.375 0.125 0.875
27 1 0.75 0 0.75
31 1 0.875 0.125 0.875
18 1 0 0.25 0.75
22 1 0.125 0.375 0.875
26 1 0.5 0.25 0.75
30 1 0.625 0.375 0.875
33 1 0 0.5 0
37 1 0.125 0.625 0.125
41 1 0.5 0.5 0
45 1 0.625 0.625 0.125
36 1 0.25 0.75 0
40 1 0.375 0.875 0.125
44 1 0.75 0.75 0
48 1 0.875 0.875 0.125
35 1 0.25 0.5 0.25
39 1 0.375 0.625 0.375
43 1 0.75 0.5 0.25
47 1 0.875 0.625 0.375
34 1 0 0.75 0.25
38 1 0.125 0.875 0.375
42 1 0.5 0.75 0.25
46 1 0.625 0.875 0.375
49 1 0 0.5 0.5
53 1 0.125 0.625 0.625
61 1 0.625 0.625 0.625
52 1 0.25 0.75 0.5
56 1 0.375 0.875 0.625
57 1 0.875 0.875 0.625
60 1 0.75 0.75 0.5
51 1 0.25 0.5 0.75
55 1 0.375 0.625 0.875
59 1 0.75 0.5 0.75
63 1 0.875 0.625 0.875
50 1 0 0.75 0.75
54 1 0.125 0.875 0.875
58 1 0.5 0.75 0.75
62 1 0.625 0.875 0.875
ITEM: TIMESTEP
100
ITEM: NUMBER OF ATOMS
63
ITEM: BOX BOUNDS pp pp pp
0.0000000000000000e+00 1.0859999999999999e+01
0.0000000000000000e+00 1.0859999999999999e+01
0.0000000000000000e+00 1.0859999999999999e+01
ITEM: ATOMS id type xs ys zs
1 1 0 0 0
5 1 0.125 0.125 0.125
9 1 0.5 0 0
13 1 0.625 0.125 0.125
4 1 0.25 0.25 0
8 1 0.375 0.375 0.125
12 1 0.75 0.25 0
16 1 0.875 0.375 0.125
3 1 0.25 0 0.25
7 1 0.375 0.125 0.375
11 1 0.75 0 0.25
15 1 0.875 0.125 0.375
2 1 0 0.25 0.25
6 1 0.125 0.375 0.375
10 1 0.490786 0.249031 0.254889
14 1 0.628133 0.380951 0.378562
17 1 0 0 0.5
21 1 0.125 0.125 0.625
25 1 0.5 0 0.5
29 1 0.625 0.125 0.625
20 1 0.238791 0.255813 0.504567
24 1 0.380168 0.363063 0.62403
28 1 0.750307 0.243074 0.480365
32 1 0.875 0.375 0.625
19 1 0.25 0 0.75
23 1 0.375 0.125 0.875
27 1 0.75 0 0.75
31 1 0.875 0.125 0.875
18 1 0 0.25 0.75
22 1 0.125 0.375 0.875
26 1 0.503786 0.248048 0.755002
30 1 0.625 0.375 0.875
33 1 0 0.5 0
37 1 0.125 0.625 0.125
41 1 0.5 0.5 0
45 1 0.625 0.625 0.125
36 1 0.25 0.75 0
40 1 0.375 0.875 0.125
44 1 0.75 0.75 0
48 1 0.875 0.875 0.125
35 1 0.254683 0.503949 0.242172
39 1 0.390378 0.627295 0.378271
43 1 0.747243 0.494357 0.252574
47 1 0.875 0.625 0.375
34 1 0 0.75 0.25
38 1 0.125 0.875 0.375
42 1 0.509188 0.737231 0.261607
46 1 0.625 0.875 0.375
49 1 0 0.5 0.5
53 1 0.125 0.625 0.625
61 1 0.619951 0.62854 0.625102
52 1 0.253286 0.743643 0.490987
56 1 0.375 0.875 0.625
57 1 0.875 0.875 0.625
60 1 0.750434 0.771636 0.498865
51 1 0.251881 0.500258 0.759432
55 1 0.375 0.625 0.875
59 1 0.745731 0.502843 0.742511
63 1 0.875 0.625 0.875
50 1 0 0.75 0.75
54 1 0.125 0.875 0.875
58 1 0.486718 0.75031 0.751624
62 1 0.625 0.875 0.875
ITEM: TIMESTEP
200
ITEM: NUMBER OF ATOMS
63
ITEM: BOX BOUNDS pp pp pp
0.0000000000000000e+00 1.0859999999999999e+01
0.0000000000000000e+00 1.0859999999999999e+01
0.0000000000000000e+00 1.0859999999999999e+01
ITEM: ATOMS id type xs ys zs
1 1 0 0 0
5 1 0.125 0.125 0.125
9 1 0.5 0 0
13 1 0.625 0.125 0.125
4 1 0.25 0.25 0
8 1 0.375 0.375 0.125
12 1 0.75 0.25 0
16 1 0.875 0.375 0.125
3 1 0.25 0 0.25
7 1 0.375 0.125 0.375
11 1 0.75 0 0.25
15 1 0.875 0.125 0.375
2 1 0 0.25 0.25
6 1 0.125 0.375 0.375
10 1 0.48779 0.250724 0.258002
14 1 0.627049 0.383546 0.380537
17 1 0 0 0.5
21 1 0.125 0.125 0.625
25 1 0.5 0 0.5
29 1 0.625 0.125 0.625
20 1 0.233245 0.257881 0.507334
24 1 0.382899 0.35511 0.625536
28 1 0.747928 0.240726 0.471422
32 1 0.875 0.375 0.625
19 1 0.25 0 0.75
23 1 0.375 0.125 0.875
27 1 0.75 0 0.75
31 1 0.875 0.125 0.875
18 1 0 0.25 0.75
22 1 0.125 0.375 0.875
26 1 0.506803 0.245296 0.758027
30 1 0.625 0.375 0.875
33 1 0 0.5 0
37 1 0.125 0.625 0.125
41 1 0.5 0.5 0
45 1 0.625 0.625 0.125
36 1 0.25 0.75 0
40 1 0.375 0.875 0.125
44 1 0.75 0.75 0
48 1 0.875 0.875 0.125
35 1 0.259549 0.507413 0.240401
39 1 0.39914 0.622475 0.382752
43 1 0.74679 0.493166 0.253014
47 1 0.875 0.625 0.375
34 1 0 0.75 0.25
38 1 0.125 0.875 0.375
42 1 0.518117 0.733135 0.265969
46 1 0.625 0.875 0.375
49 1 0 0.5 0.5
53 1 0.125 0.625 0.625
61 1 0.615997 0.635522 0.623679
52 1 0.255956 0.740112 0.486136
56 1 0.375 0.875 0.625
57 1 0.875 0.875 0.625
60 1 0.75063 0.781511 0.498649
51 1 0.253879 0.498739 0.762162
55 1 0.375 0.625 0.875
59 1 0.742556 0.504664 0.738234
63 1 0.875 0.625 0.875
50 1 0 0.75 0.75
54 1 0.125 0.875 0.875
58 1 0.480501 0.750975 0.752515
62 1 0.625 0.875 0.875
ITEM: TIMESTEP
300
ITEM: NUMBER OF ATOMS
63
ITEM: BOX BOUNDS pp pp pp
0.0000000000000000e+00 1.0859999999999999e+01
0.0000000000000000e+00 1.0859999999999999e+01
0.0000000000000000e+00 1.0859999999999999e+01
ITEM: ATOMS id type xs ys zs
1 1 0 0 0
5 1 0.125 0.125 0.125
9 1 0.5 0 0
13 1 0.625 0.125 0.125
4 1 0.25 0.25 0
8 1 0.375 0.375 0.125
12 1 0.75 0.25 0
16 1 0.875 0.375 0.125
3 1 0.25 0 0.25
7 1 0.375 0.125 0.375
11 1 0.75 0 0.25
15 1 0.875 0.125 0.375
2 1 0 0.25 0.25
6 1 0.125 0.375 0.375
10 1 0.492759 0.25507 0.258137
14 1 0.620752 0.383388 0.380522
17 1 0 0 0.5
21 1 0.125 0.125 0.625
25 1 0.5 0 0.5
29 1 0.625 0.125 0.625
20 1 0.235513 0.255522 0.507795
24 1 0.38278 0.35243 0.629296
28 1 0.742066 0.244386 0.477002
32 1 0.875 0.375 0.625
19 1 0.25 0 0.75
23 1 0.375 0.125 0.875
27 1 0.75 0 0.75
31 1 0.875 0.125 0.875
18 1 0 0.25 0.75
22 1 0.125 0.375 0.875
26 1 0.508608 0.241794 0.758756
30 1 0.625 0.375 0.875
33 1 0 0.5 0
37 1 0.125 0.625 0.125
41 1 0.5 0.5 0
45 1 0.625 0.625 0.125
36 1 0.25 0.75 0
40 1 0.375 0.875 0.125
44 1 0.75 0.75 0
48 1 0.875 0.875 0.125
35 1 0.263623 0.509626 0.245913
39 1 0.401086 0.61074 0.388009
43 1 0.748789 0.49733 0.251171
47 1 0.875 0.625 0.375
34 1 0 0.75 0.25
38 1 0.125 0.875 0.375
42 1 0.521906 0.739112 0.261599
46 1 0.625 0.875 0.375
49 1 0 0.5 0.5
53 1 0.125 0.625 0.625
61 1 0.614135 0.645363 0.620592
52 1 0.257286 0.74001 0.486764
56 1 0.375 0.875 0.625
57 1 0.875 0.875 0.625
60 1 0.75085 0.775407 0.499295
51 1 0.255404 0.495265 0.756417
55 1 0.375 0.625 0.875
59 1 0.740901 0.505575 0.738138
63 1 0.875 0.625 0.875
50 1 0 0.75 0.75
54 1 0.125 0.875 0.875
58 1 0.483999 0.75278 0.752793
62 1 0.625 0.875 0.875
ITEM: TIMESTEP
400
ITEM: NUMBER OF ATOMS
63
ITEM: BOX BOUNDS pp pp pp
0.0000000000000000e+00 1.0859999999999999e+01
0.0000000000000000e+00 1.0859999999999999e+01
0.0000000000000000e+00 1.0859999999999999e+01
ITEM: ATOMS id type xs ys zs
1 1 0 0 0
5 1 0.125 0.125 0.125
9 1 0.5 0 0
13 1 0.625 0.125 0.125
4 1 0.25 0.25 0
8 1 0.375 0.375 0.125
12 1 0.75 0.25 0
16 1 0.875 0.375 0.125
3 1 0.25 0 0.25
7 1 0.375 0.125 0.375
11 1 0.75 0 0.25
15 1 0.875 0.125 0.375
2 1 0 0.25 0.25
6 1 0.125 0.375 0.375
10 1 0.502011 0.258867 0.255277
14 1 0.612638 0.383158 0.377787
17 1 0 0 0.5
21 1 0.125 0.125 0.625
25 1 0.5 0 0.5
29 1 0.625 0.125 0.625
20 1 0.244723 0.249683 0.505163
24 1 0.380023 0.354689 0.634349
28 1 0.736829 0.250909 0.493287
32 1 0.875 0.375 0.625
19 1 0.25 0 0.75
23 1 0.375 0.125 0.875
27 1 0.75 0 0.75
31 1 0.875 0.125 0.875
18 1 0 0.25 0.75
22 1 0.125 0.375 0.875
26 1 0.508965 0.238965 0.757802
30 1 0.625 0.375 0.875
33 1 0 0.5 0
37 1 0.125 0.625 0.125
41 1 0.5 0.5 0
45 1 0.625 0.625 0.125
36 1 0.25 0.75 0
40 1 0.375 0.875 0.125
44 1 0.75 0.75 0
48 1 0.875 0.875 0.125
35 1 0.265022 0.509313 0.255616
39 1 0.400729 0.599493 0.391137
43 1 0.750905 0.503645 0.249141
47 1 0.875 0.625 0.375
34 1 0 0.75 0.25
38 1 0.125 0.875 0.375
42 1 0.514967 0.747978 0.253773
46 1 0.625 0.875 0.375
49 1 0 0.5 0.5
53 1 0.125 0.625 0.625
61 1 0.615243 0.653929 0.617243
52 1 0.257765 0.741905 0.492032
56 1 0.375 0.875 0.625
57 1 0.875 0.875 0.625
60 1 0.751212 0.757014 0.499676
51 1 0.256311 0.491337 0.745475
55 1 0.375 0.625 0.875
59 1 0.740494 0.506582 0.741016
63 1 0.875 0.625 0.875
50 1 0 0.75 0.75
54 1 0.125 0.875 0.875
58 1 0.494652 0.756145 0.753537
62 1 0.625 0.875 0.875
ITEM: TIMESTEP
500
ITEM: NUMBER OF ATOMS
63
ITEM: BOX BOUNDS pp pp pp
0.0000000000000000e+00 1.0859999999999999e+01
0.0000000000000000e+00 1.0859999999999999e+01
0.0000000000000000e+00 1.0859999999999999e+01
ITEM: ATOMS id type xs ys zs
1 1 0 0 0
5 1 0.125 0.125 0.125
9 1 0.5 0 0
13 1 0.625 0.125 0.125
4 1 0.25 0.25 0
8 1 0.375 0.375 0.125
12 1 0.75 0.25 0
16 1 0.875 0.375 0.125
3 1 0.25 0 0.25
7 1 0.375 0.125 0.375
11 1 0.75 0 0.25
15 1 0.875 0.125 0.375
2 1 0 0.25 0.25
6 1 0.125 0.375 0.375
10 1 0.508754 0.257974 0.24905
14 1 0.608551 0.385137 0.37486
17 1 0 0 0.5
21 1 0.125 0.125 0.625
25 1 0.5 0 0.5
29 1 0.625 0.125 0.625
20 1 0.257053 0.242684 0.499933
24 1 0.376243 0.35924 0.638085
28 1 0.735701 0.258736 0.512162
32 1 0.875 0.375 0.625
19 1 0.25 0 0.75
23 1 0.375 0.125 0.875
27 1 0.75 0 0.75
31 1 0.875 0.125 0.875
18 1 0 0.25 0.75
22 1 0.125 0.375 0.875
26 1 0.507566 0.238738 0.756212
30 1 0.625 0.375 0.875
33 1 0 0.5 0
37 1 0.125 0.625 0.125
41 1 0.5 0.5 0
45 1 0.625 0.625 0.125
36 1 0.25 0.75 0
40 1 0.375 0.875 0.125
44 1 0.75 0.75 0
48 1 0.875 0.875 0.125
35 1 0.261756 0.505134 0.264298
39 1 0.400238 0.593977 0.392811
43 1 0.751382 0.507845 0.248372
47 1 0.875 0.625 0.375
34 1 0 0.75 0.25
38 1 0.125 0.875 0.375
42 1 0.49967 0.75532 0.246043
46 1 0.625 0.875 0.375
49 1 0 0.5 0.5
53 1 0.125 0.625 0.625
61 1 0.617639 0.655135 0.616263
52 1 0.25816 0.74402 0.499597
56 1 0.375 0.875 0.625
57 1 0.875 0.875 0.625
60 1 0.753639 0.737996 0.497635
51 1 0.255445 0.489982 0.736252
55 1 0.375 0.625 0.875
59 1 0.741211 0.50817 0.744993
63 1 0.875 0.625 0.875
50 1 0 0.75 0.75
54 1 0.125 0.875 0.875
58 1 0.505722 0.760077 0.755332
62 1 0.625 0.875 0.875
ITEM: TIMESTEP
600
ITEM: NUMBER OF ATOMS
63
ITEM: BOX BOUNDS pp pp pp
0.0000000000000000e+00 1.0859999999999999e+01
0.0000000000000000e+00 1.0859999999999999e+01
0.0000000000000000e+00 1.0859999999999999e+01
ITEM: ATOMS id type xs ys zs
1 1 0 0 0
5 1 0.125 0.125 0.125
9 1 0.5 0 0
13 1 0.625 0.125 0.125
4 1 0.25 0.25 0
8 1 0.375 0.375 0.125
12 1 0.75 0.25 0
16 1 0.875 0.375 0.125
3 1 0.25 0 0.25
7 1 0.375 0.125 0.375
11 1 0.75 0 0.25
15 1 0.875 0.125 0.375
2 1 0 0.25 0.25
6 1 0.125 0.375 0.375
10 1 0.509341 0.252532 0.241641
14 1 0.611172 0.389097 0.374103
17 1 0 0 0.5
21 1 0.125 0.125 0.625
25 1 0.5 0 0.5
29 1 0.625 0.125 0.625
20 1 0.265831 0.239373 0.49586
24 1 0.374564 0.361497 0.637091
28 1 0.737904 0.266708 0.523666
32 1 0.875 0.375 0.625
19 1 0.25 0 0.75
23 1 0.375 0.125 0.875
27 1 0.75 0 0.75
31 1 0.875 0.125 0.875
18 1 0 0.25 0.75
22 1 0.125 0.375 0.875
26 1 0.504541 0.242104 0.754773
30 1 0.625 0.375 0.875
33 1 0 0.5 0
37 1 0.125 0.625 0.125
41 1 0.5 0.5 0
45 1 0.625 0.625 0.125
36 1 0.25 0.75 0
40 1 0.375 0.875 0.125
44 1 0.75 0.75 0
48 1 0.875 0.875 0.125
35 1 0.254545 0.497765 0.267955
39 1 0.399688 0.596393 0.393709
43 1 0.750095 0.507503 0.249157
47 1 0.875 0.625 0.375
34 1 0 0.75 0.25
38 1 0.125 0.875 0.375
42 1 0.484431 0.757407 0.242799
46 1 0.625 0.875 0.375
49 1 0 0.5 0.5
53 1 0.125 0.625 0.625
61 1 0.618793 0.646209 0.620136
52 1 0.258414 0.74502 0.506238
56 1 0.375 0.875 0.625
57 1 0.875 0.875 0.625
60 1 0.758107 0.72957 0.493653
51 1 0.250972 0.493901 0.734646
55 1 0.375 0.625 0.875
59 1 0.742939 0.509752 0.748345
63 1 0.875 0.625 0.875
50 1 0 0.75 0.75
54 1 0.125 0.875 0.875
58 1 0.510319 0.761585 0.756316
62 1 0.625 0.875 0.875
ITEM: TIMESTEP
700
ITEM: NUMBER OF ATOMS
63
ITEM: BOX BOUNDS pp pp pp
0.0000000000000000e+00 1.0859999999999999e+01
0.0000000000000000e+00 1.0859999999999999e+01
0.0000000000000000e+00 1.0859999999999999e+01
ITEM: ATOMS id type xs ys zs
1 1 0 0 0
5 1 0.125 0.125 0.125
9 1 0.5 0 0
13 1 0.625 0.125 0.125
4 1 0.25 0.25 0
8 1 0.375 0.375 0.125
12 1 0.75 0.25 0
16 1 0.875 0.375 0.125
3 1 0.25 0 0.25
7 1 0.375 0.125 0.375
11 1 0.75 0 0.25
15 1 0.875 0.125 0.375
2 1 0 0.25 0.25
6 1 0.125 0.375 0.375
10 1 0.504258 0.247165 0.238703
14 1 0.618421 0.391505 0.374468
17 1 0 0 0.5
21 1 0.125 0.125 0.625
25 1 0.5 0 0.5
29 1 0.625 0.125 0.625
20 1 0.26536 0.24331 0.496603
24 1 0.374914 0.362003 0.63143
28 1 0.740397 0.2696 0.520087
32 1 0.875 0.375 0.625
19 1 0.25 0 0.75
23 1 0.375 0.125 0.875
27 1 0.75 0 0.75
31 1 0.875 0.125 0.875
18 1 0 0.25 0.75
22 1 0.125 0.375 0.875
26 1 0.501071 0.247834 0.75361
30 1 0.625 0.375 0.875
33 1 0 0.5 0
37 1 0.125 0.625 0.125
41 1 0.5 0.5 0
45 1 0.625 0.625 0.125
36 1 0.25 0.75 0
40 1 0.375 0.875 0.125
44 1 0.75 0.75 0
48 1 0.875 0.875 0.125
35 1 0.24816 0.49148 0.265121
39 1 0.396812 0.605449 0.392923
43 1 0.748132 0.503297 0.250867
47 1 0.875 0.625 0.375
34 1 0 0.75 0.25
38 1 0.125 0.875 0.375
42 1 0.476786 0.750993 0.248059
46 1 0.625 0.875 0.375
49 1 0 0.5 0.5
53 1 0.125 0.625 0.625
61 1 0.620485 0.630326 0.626977
52 1 0.258093 0.74441 0.508824
56 1 0.375 0.875 0.625
57 1 0.875 0.875 0.625
60 1 0.758058 0.735008 0.493765
51 1 0.245258 0.500821 0.741554
55 1 0.375 0.625 0.875
59 1 0.745533 0.509475 0.750336
63 1 0.875 0.625 0.875
50 1 0 0.75 0.75
54 1 0.125 0.875 0.875
58 1 0.505965 0.758388 0.75417
62 1 0.625 0.875 0.875
ITEM: TIMESTEP
800
ITEM: NUMBER OF ATOMS
63
ITEM: BOX BOUNDS pp pp pp
0.0000000000000000e+00 1.0859999999999999e+01
0.0000000000000000e+00 1.0859999999999999e+01
0.0000000000000000e+00 1.0859999999999999e+01
ITEM: ATOMS id type xs ys zs
1 1 0 0 0
5 1 0.125 0.125 0.125
9 1 0.5 0 0
13 1 0.625 0.125 0.125
4 1 0.25 0.25 0
8 1 0.375 0.375 0.125
12 1 0.75 0.25 0
16 1 0.875 0.375 0.125
3 1 0.25 0 0.25
7 1 0.375 0.125 0.375
11 1 0.75 0 0.25
15 1 0.875 0.125 0.375
2 1 0 0.25 0.25
6 1 0.125 0.375 0.375
10 1 0.496238 0.245096 0.243123
14 1 0.625761 0.388982 0.375326
17 1 0 0 0.5
21 1 0.125 0.125 0.625
25 1 0.5 0 0.5
29 1 0.625 0.125 0.625
20 1 0.255385 0.251494 0.500341
24 1 0.374824 0.365989 0.624816
28 1 0.741708 0.265062 0.503272
32 1 0.875 0.375 0.625
19 1 0.25 0 0.75
23 1 0.375 0.125 0.875
27 1 0.75 0 0.75
31 1 0.875 0.125 0.875
18 1 0 0.25 0.75
22 1 0.125 0.375 0.875
26 1 0.498601 0.252854 0.75236
30 1 0.625 0.375 0.875
33 1 0 0.5 0
37 1 0.125 0.625 0.125
41 1 0.5 0.5 0
45 1 0.625 0.625 0.125
36 1 0.25 0.75 0
40 1 0.375 0.875 0.125
44 1 0.75 0.75 0
48 1 0.875 0.875 0.125
35 1 0.246927 0.491092 0.256209
39 1 0.388794 0.616781 0.390752
43 1 0.747755 0.498772 0.251564
47 1 0.875 0.625 0.375
34 1 0 0.75 0.25
38 1 0.125 0.875 0.375
42 1 0.478767 0.739966 0.258234
46 1 0.625 0.875 0.375
49 1 0 0.5 0.5
53 1 0.125 0.625 0.625
61 1 0.623552 0.61369 0.63309
52 1 0.256814 0.743187 0.506148
56 1 0.375 0.875 0.625
57 1 0.875 0.875 0.625
60 1 0.751046 0.749948 0.499785
51 1 0.243058 0.505836 0.7534
55 1 0.375 0.625 0.875
59 1 0.749578 0.504661 0.751984
63 1 0.875 0.625 0.875
50 1 0 0.75 0.75
54 1 0.125 0.875 0.875
58 1 0.496425 0.75104 0.749528
62 1 0.625 0.875 0.875
ITEM: TIMESTEP
900
ITEM: NUMBER OF ATOMS
63
ITEM: BOX BOUNDS pp pp pp
0.0000000000000000e+00 1.0859999999999999e+01
0.0000000000000000e+00 1.0859999999999999e+01
0.0000000000000000e+00 1.0859999999999999e+01
ITEM: ATOMS id type xs ys zs
1 1 0 0 0
5 1 0.125 0.125 0.125
9 1 0.5 0 0
13 1 0.625 0.125 0.125
4 1 0.25 0.25 0
8 1 0.375 0.375 0.125
12 1 0.75 0.25 0
16 1 0.875 0.375 0.125
3 1 0.25 0 0.25
7 1 0.375 0.125 0.375
11 1 0.75 0 0.25
15 1 0.875 0.125 0.375
2 1 0 0.25 0.25
6 1 0.125 0.375 0.375
10 1 0.490362 0.246874 0.252292
14 1 0.628314 0.38141 0.375396
17 1 0 0 0.5
21 1 0.125 0.125 0.625
25 1 0.5 0 0.5
29 1 0.625 0.125 0.625
20 1 0.241078 0.257775 0.503111
24 1 0.373407 0.375915 0.62102
28 1 0.745244 0.254648 0.484102
32 1 0.875 0.375 0.625
19 1 0.25 0 0.75
23 1 0.375 0.125 0.875
27 1 0.75 0 0.75
31 1 0.875 0.125 0.875
18 1 0 0.25 0.75
22 1 0.125 0.375 0.875
26 1 0.497505 0.255059 0.750273
30 1 0.625 0.375 0.875
33 1 0 0.5 0
37 1 0.125 0.625 0.125
41 1 0.5 0.5 0
45 1 0.625 0.625 0.125
36 1 0.25 0.75 0
40 1 0.375 0.875 0.125
44 1 0.75 0.75 0
48 1 0.875 0.875 0.125
35 1 0.250283 0.497068 0.245152
39 1 0.373808 0.623522 0.389065
43 1 0.750341 0.497253 0.249805
47 1 0.875 0.625 0.375
34 1 0 0.75 0.25
38 1 0.125 0.875 0.375
42 1 0.490727 0.733418 0.264354
46 1 0.625 0.875 0.375
49 1 0 0.5 0.5
53 1 0.125 0.625 0.625
61 1 0.625497 0.602844 0.63526
52 1 0.253499 0.744073 0.500643
56 1 0.375 0.875 0.625
57 1 0.875 0.875 0.625
60 1 0.741317 0.763791 0.508121
51 1 0.245086 0.507014 0.763719
55 1 0.375 0.625 0.875
59 1 0.755921 0.494467 0.755038
63 1 0.875 0.625 0.875
50 1 0 0.75 0.75
54 1 0.125 0.875 0.875
58 1 0.488905 0.741832 0.745041
62 1 0.625 0.875 0.875
ITEM: TIMESTEP
1000
ITEM: NUMBER OF ATOMS
63
ITEM: BOX BOUNDS pp pp pp
0.0000000000000000e+00 1.0859999999999999e+01
0.0000000000000000e+00 1.0859999999999999e+01
0.0000000000000000e+00 1.0859999999999999e+01
ITEM: ATOMS id type xs ys zs
1 1 0 0 0
5 1 0.125 0.125 0.125
9 1 0.5 0 0
13 1 0.625 0.125 0.125
4 1 0.25 0.25 0
8 1 0.375 0.375 0.125
12 1 0.75 0.25 0
16 1 0.875 0.375 0.125
3 1 0.25 0 0.25
7 1 0.375 0.125 0.375
11 1 0.75 0 0.25
15 1 0.875 0.125 0.375
2 1 0 0.25 0.25
6 1 0.125 0.375 0.375
10 1 0.490626 0.252112 0.26063
14 1 0.625387 0.372307 0.371974
17 1 0 0 0.5
21 1 0.125 0.125 0.625
25 1 0.5 0 0.5
29 1 0.625 0.125 0.625
20 1 0.230977 0.259915 0.504757
24 1 0.369967 0.388975 0.620805
28 1 0.751609 0.24129 0.473282
32 1 0.875 0.375 0.625
19 1 0.25 0 0.75
23 1 0.375 0.125 0.875
27 1 0.75 0 0.75
31 1 0.875 0.125 0.875
18 1 0 0.25 0.75
22 1 0.125 0.375 0.875
26 1 0.497176 0.25514 0.746846
30 1 0.625 0.375 0.875
33 1 0 0.5 0
37 1 0.125 0.625 0.125
41 1 0.5 0.5 0
45 1 0.625 0.625 0.125
36 1 0.25 0.75 0
40 1 0.375 0.875 0.125
44 1 0.75 0.75 0
48 1 0.875 0.875 0.125
35 1 0.254285 0.505754 0.237834
39 1 0.35674 0.622764 0.384813
43 1 0.753717 0.498682 0.247133
47 1 0.875 0.625 0.375
34 1 0 0.75 0.25
38 1 0.125 0.875 0.375
42 1 0.508519 0.734311 0.264293
46 1 0.625 0.875 0.375
49 1 0 0.5 0.5
53 1 0.125 0.625 0.625
61 1 0.625827 0.598648 0.633487
52 1 0.246287 0.750029 0.497346
56 1 0.375 0.875 0.625
57 1 0.875 0.875 0.625
60 1 0.732784 0.768654 0.516436
51 1 0.248774 0.504749 0.766751
55 1 0.375 0.625 0.875
59 1 0.762465 0.483466 0.759033
63 1 0.875 0.625 0.875
50 1 0 0.75 0.75
54 1 0.125 0.875 0.875
58 1 0.488374 0.733684 0.741527
62 1 0.625 0.875 0.875
ITEM: TIMESTEP
1100
ITEM: NUMBER OF ATOMS
63
ITEM: BOX BOUNDS pp pp pp
0.0000000000000000e+00 1.0859999999999999e+01
0.0000000000000000e+00 1.0859999999999999e+01
0.0000000000000000e+00 1.0859999999999999e+01
ITEM: ATOMS id type xs ys zs
1 1 0 0 0
5 1 0.125 0.125 0.125
9 1 0.5 0 0
13 1 0.625 0.125 0.125
4 1 0.25 0.25 0
8 1 0.375 0.375 0.125
12 1 0.75 0.25 0
16 1 0.875 0.375 0.125
3 1 0.25 0 0.25
7 1 0.375 0.125 0.375
11 1 0.75 0 0.25
15 1 0.875 0.125 0.375
2 1 0 0.25 0.25
6 1 0.125 0.375 0.375
10 1 0.49496 0.257471 0.26256
14 1 0.622799 0.365459 0.367024
17 1 0 0 0.5
21 1 0.125 0.125 0.625
25 1 0.5 0 0.5
29 1 0.625 0.125 0.625
20 1 0.231459 0.258971 0.50642
24 1 0.365004 0.399989 0.622725
28 1 0.752992 0.234477 0.477712
32 1 0.875 0.375 0.625
19 1 0.25 0 0.75
23 1 0.375 0.125 0.875
27 1 0.75 0 0.75
31 1 0.875 0.125 0.875
18 1 0 0.25 0.75
22 1 0.125 0.375 0.875
26 1 0.496793 0.255295 0.742656
30 1 0.625 0.375 0.875
33 1 0 0.5 0
37 1 0.125 0.625 0.125
41 1 0.5 0.5 0
45 1 0.625 0.625 0.125
36 1 0.25 0.75 0
40 1 0.375 0.875 0.125
44 1 0.75 0.75 0
48 1 0.875 0.875 0.125
35 1 0.255317 0.511577 0.235807
39 1 0.345791 0.619777 0.37649
43 1 0.754653 0.50096 0.245832
47 1 0.875 0.625 0.375
34 1 0 0.75 0.25
38 1 0.125 0.875 0.375
42 1 0.521306 0.739115 0.261664
46 1 0.625 0.875 0.375
49 1 0 0.5 0.5
53 1 0.125 0.625 0.625
61 1 0.62656 0.598297 0.630018
52 1 0.237324 0.759129 0.498824
56 1 0.375 0.875 0.625
57 1 0.875 0.875 0.625
60 1 0.728368 0.761407 0.522103
51 1 0.251376 0.501035 0.761412
55 1 0.375 0.625 0.875
59 1 0.765764 0.478159 0.762778
63 1 0.875 0.625 0.875
50 1 0 0.75 0.75
54 1 0.125 0.875 0.875
58 1 0.49502 0.729475 0.738855
62 1 0.625 0.875 0.875
ITEM: TIMESTEP
1200
ITEM: NUMBER OF ATOMS
63
ITEM: BOX BOUNDS pp pp pp
0.0000000000000000e+00 1.0859999999999999e+01
0.0000000000000000e+00 1.0859999999999999e+01
0.0000000000000000e+00 1.0859999999999999e+01
ITEM: ATOMS id type xs ys zs
1 1 0 0 0
5 1 0.125 0.125 0.125
9 1 0.5 0 0
13 1 0.625 0.125 0.125
4 1 0.25 0.25 0
8 1 0.375 0.375 0.125
12 1 0.75 0.25 0
16 1 0.875 0.375 0.125
3 1 0.25 0 0.25
7 1 0.375 0.125 0.375
11 1 0.75 0 0.25
15 1 0.875 0.125 0.375
2 1 0 0.25 0.25
6 1 0.125 0.375 0.375
10 1 0.497051 0.256615 0.254515
14 1 0.627564 0.364642 0.365649
17 1 0 0 0.5
21 1 0.125 0.125 0.625
25 1 0.5 0 0.5
29 1 0.625 0.125 0.625
20 1 0.242886 0.256645 0.507292
24 1 0.362202 0.403645 0.622874
28 1 0.746742 0.238894 0.496132
32 1 0.875 0.375 0.625
19 1 0.25 0 0.75
23 1 0.375 0.125 0.875
27 1 0.75 0 0.75
31 1 0.875 0.125 0.875
18 1 0 0.25 0.75
22 1 0.125 0.375 0.875
26 1 0.495629 0.256886 0.739144
30 1 0.625 0.375 0.875
33 1 0 0.5 0
37 1 0.125 0.625 0.125
41 1 0.5 0.5 0
45 1 0.625 0.625 0.125
36 1 0.25 0.75 0
40 1 0.375 0.875 0.125
44 1 0.75 0.75 0
48 1 0.875 0.875 0.125
35 1 0.250513 0.507977 0.23518
39 1 0.345499 0.624323 0.370307
43 1 0.752233 0.502181 0.24661
47 1 0.875 0.625 0.375
34 1 0 0.75 0.25
38 1 0.125 0.875 0.375
42 1 0.51967 0.744085 0.25796
46 1 0.625 0.875 0.375
49 1 0 0.5 0.5
53 1 0.125 0.625 0.625
61 1 0.628706 0.598046 0.626936
52 1 0.232905 0.76499 0.504297
56 1 0.375 0.875 0.625
57 1 0.875 0.875 0.625
60 1 0.729974 0.746547 0.522028
51 1 0.249862 0.500458 0.753336
55 1 0.375 0.625 0.875
59 1 0.7648 0.481136 0.765191
63 1 0.875 0.625 0.875
50 1 0 0.75 0.75
54 1 0.125 0.875 0.875
58 1 0.504994 0.731103 0.738239
62 1 0.625 0.875 0.875
ITEM: TIMESTEP
1300
ITEM: NUMBER OF ATOMS
63
ITEM: BOX BOUNDS pp pp pp
0.0000000000000000e+00 1.0859999999999999e+01
0.0000000000000000e+00 1.0859999999999999e+01
0.0000000000000000e+00 1.0859999999999999e+01
ITEM: ATOMS id type xs ys zs
1 1 0 0 0
5 1 0.125 0.125 0.125
9 1 0.5 0 0
13 1 0.625 0.125 0.125
4 1 0.25 0.25 0
8 1 0.375 0.375 0.125
12 1 0.75 0.25 0
16 1 0.875 0.375 0.125
3 1 0.25 0 0.25
7 1 0.375 0.125 0.375
11 1 0.75 0 0.25
15 1 0.875 0.125 0.375
2 1 0 0.25 0.25
6 1 0.125 0.375 0.375
10 1 0.497492 0.249681 0.241567
14 1 0.63679 0.368004 0.367629
17 1 0 0 0.5
21 1 0.125 0.125 0.625
25 1 0.5 0 0.5
29 1 0.625 0.125 0.625
20 1 0.259292 0.253661 0.505735
24 1 0.365451 0.397826 0.618763
28 1 0.741258 0.249994 0.516764
32 1 0.875 0.375 0.625
19 1 0.25 0 0.75
23 1 0.375 0.125 0.875
27 1 0.75 0 0.75
31 1 0.875 0.125 0.875
18 1 0 0.25 0.75
22 1 0.125 0.375 0.875
26 1 0.493632 0.259569 0.737633
30 1 0.625 0.375 0.875
33 1 0 0.5 0
37 1 0.125 0.625 0.125
41 1 0.5 0.5 0
45 1 0.625 0.625 0.125
36 1 0.25 0.75 0
40 1 0.375 0.875 0.125
44 1 0.75 0.75 0
48 1 0.875 0.875 0.125
35 1 0.241936 0.496031 0.237822
39 1 0.353141 0.637033 0.36709
43 1 0.748671 0.501795 0.248847
47 1 0.875 0.625 0.375
34 1 0 0.75 0.25
38 1 0.125 0.875 0.375
42 1 0.504555 0.748156 0.253016
46 1 0.625 0.875 0.375
49 1 0 0.5 0.5
53 1 0.125 0.625 0.625
61 1 0.630927 0.594964 0.626565
52 1 0.23565 0.764411 0.511737
56 1 0.375 0.875 0.625
57 1 0.875 0.875 0.625
60 1 0.738209 0.732942 0.514736
51 1 0.243367 0.505453 0.748924
55 1 0.375 0.625 0.875
59 1 0.760495 0.490629 0.764075
63 1 0.875 0.625 0.875
50 1 0 0.75 0.75
54 1 0.125 0.875 0.875
58 1 0.513694 0.738081 0.740881
62 1 0.625 0.875 0.875
ITEM: TIMESTEP
1400
ITEM: NUMBER OF ATOMS
63
ITEM: BOX BOUNDS pp pp pp
0.0000000000000000e+00 1.0859999999999999e+01
0.0000000000000000e+00 1.0859999999999999e+01
0.0000000000000000e+00 1.0859999999999999e+01
ITEM: ATOMS id type xs ys zs
1 1 0 0 0
5 1 0.125 0.125 0.125
9 1 0.5 0 0
13 1 0.625 0.125 0.125
4 1 0.25 0.25 0
8 1 0.375 0.375 0.125
12 1 0.75 0.25 0
16 1 0.875 0.375 0.125
3 1 0.25 0 0.25
7 1 0.375 0.125 0.375
11 1 0.75 0 0.25
15 1 0.875 0.125 0.375
2 1 0 0.25 0.25
6 1 0.125 0.375 0.375
10 1 0.499127 0.242019 0.233463
14 1 0.643098 0.369821 0.369994
17 1 0 0 0.5
21 1 0.125 0.125 0.625
25 1 0.5 0 0.5
29 1 0.625 0.125 0.625
20 1 0.271564 0.24972 0.501365
24 1 0.373154 0.388409 0.614843
28 1 0.74139 0.263191 0.528972
32 1 0.875 0.375 0.625
19 1 0.25 0 0.75
23 1 0.375 0.125 0.875
27 1 0.75 0 0.75
31 1 0.875 0.125 0.875
18 1 0 0.25 0.75
22 1 0.125 0.375 0.875
26 1 0.492245 0.261469 0.739077
30 1 0.625 0.375 0.875
33 1 0 0.5 0
37 1 0.125 0.625 0.125
41 1 0.5 0.5 0
45 1 0.625 0.625 0.125
36 1 0.25 0.75 0
40 1 0.375 0.875 0.125
44 1 0.75 0.75 0
48 1 0.875 0.875 0.125
35 1 0.23558 0.484048 0.246013
39 1 0.360601 0.65058 0.364294
43 1 0.747761 0.50127 0.250733
47 1 0.875 0.625 0.375
34 1 0 0.75 0.25
38 1 0.125 0.875 0.375
42 1 0.486069 0.753261 0.246585
46 1 0.625 0.875 0.375
49 1 0 0.5 0.5
53 1 0.125 0.625 0.625
61 1 0.631346 0.591941 0.628316
52 1 0.243313 0.758747 0.516319
56 1 0.375 0.875 0.625
57 1 0.875 0.875 0.625
60 1 0.751218 0.724908 0.50181
51 1 0.238156 0.510509 0.748037
55 1 0.375 0.625 0.875
59 1 0.754671 0.500945 0.759043
63 1 0.875 0.625 0.875
50 1 0 0.75 0.75
54 1 0.125 0.875 0.875
58 1 0.518265 0.747116 0.74567
62 1 0.625 0.875 0.875
ITEM: TIMESTEP
1500
ITEM: NUMBER OF ATOMS
63
ITEM: BOX BOUNDS pp pp pp
0.0000000000000000e+00 1.0859999999999999e+01
0.0000000000000000e+00 1.0859999999999999e+01
0.0000000000000000e+00 1.0859999999999999e+01
ITEM: ATOMS id type xs ys zs
1 1 0 0 0
5 1 0.125 0.125 0.125
9 1 0.5 0 0
13 1 0.625 0.125 0.125
4 1 0.25 0.25 0
8 1 0.375 0.375 0.125
12 1 0.75 0.25 0
16 1 0.875 0.375 0.125
3 1 0.25 0 0.25
7 1 0.375 0.125 0.375
11 1 0.75 0 0.25
15 1 0.875 0.125 0.375
2 1 0 0.25 0.25
6 1 0.125 0.375 0.375
10 1 0.500262 0.2388 0.235525
14 1 0.643266 0.367759 0.371532
17 1 0 0 0.5
21 1 0.125 0.125 0.625
25 1 0.5 0 0.5
29 1 0.625 0.125 0.625
20 1 0.273186 0.246535 0.496496
24 1 0.381894 0.381788 0.61457
28 1 0.74371 0.269525 0.525954
32 1 0.875 0.375 0.625
19 1 0.25 0 0.75
23 1 0.375 0.125 0.875
27 1 0.75 0 0.75
31 1 0.875 0.125 0.875
18 1 0 0.25 0.75
22 1 0.125 0.375 0.875
26 1 0.493706 0.260207 0.743891
30 1 0.625 0.375 0.875
33 1 0 0.5 0
37 1 0.125 0.625 0.125
41 1 0.5 0.5 0
45 1 0.625 0.625 0.125
36 1 0.25 0.75 0
40 1 0.375 0.875 0.125
44 1 0.75 0.75 0
48 1 0.875 0.875 0.125
35 1 0.237559 0.48196 0.253625
39 1 0.360106 0.656 0.363839
43 1 0.751066 0.5021 0.250725
47 1 0.875 0.625 0.375
34 1 0 0.75 0.25
38 1 0.125 0.875 0.375
42 1 0.478016 0.759856 0.239326
46 1 0.625 0.875 0.375
49 1 0 0.5 0.5
53 1 0.125 0.625 0.625
61 1 0.628075 0.596044 0.626859
52 1 0.251841 0.751213 0.514097
56 1 0.375 0.875 0.625
57 1 0.875 0.875 0.625
60 1 0.760337 0.725779 0.491837
51 1 0.239909 0.509708 0.749588
55 1 0.375 0.625 0.875
59 1 0.751122 0.504955 0.754278
63 1 0.875 0.625 0.875
50 1 0 0.75 0.75
54 1 0.125 0.875 0.875
58 1 0.51692 0.753738 0.749447
62 1 0.625 0.875 0.875
ITEM: TIMESTEP
1600
ITEM: NUMBER OF ATOMS
63
ITEM: BOX BOUNDS pp pp pp
0.0000000000000000e+00 1.0859999999999999e+01
0.0000000000000000e+00 1.0859999999999999e+01
0.0000000000000000e+00 1.0859999999999999e+01
ITEM: ATOMS id type xs ys zs
1 1 0 0 0
5 1 0.125 0.125 0.125
9 1 0.5 0 0
13 1 0.625 0.125 0.125
4 1 0.25 0.25 0
8 1 0.375 0.375 0.125
12 1 0.75 0.25 0
16 1 0.875 0.375 0.125
3 1 0.25 0 0.25
7 1 0.375 0.125 0.375
11 1 0.75 0 0.25
15 1 0.875 0.125 0.375
2 1 0 0.25 0.25
6 1 0.125 0.375 0.375
10 1 0.499985 0.242182 0.246774
14 1 0.637271 0.364529 0.369407
17 1 0 0 0.5
21 1 0.125 0.125 0.625
25 1 0.5 0 0.5
29 1 0.625 0.125 0.625
20 1 0.263028 0.247642 0.494877
24 1 0.388593 0.37868 0.61727
28 1 0.745568 0.262645 0.509729
32 1 0.875 0.375 0.625
19 1 0.25 0 0.75
23 1 0.375 0.125 0.875
27 1 0.75 0 0.75
31 1 0.875 0.125 0.875
18 1 0 0.25 0.75
22 1 0.125 0.375 0.875
26 1 0.498804 0.254737 0.75111
30 1 0.625 0.375 0.875
33 1 0 0.5 0
37 1 0.125 0.625 0.125
41 1 0.5 0.5 0
45 1 0.625 0.625 0.125
36 1 0.25 0.75 0
40 1 0.375 0.875 0.125
44 1 0.75 0.75 0
48 1 0.875 0.875 0.125
35 1 0.249104 0.493089 0.256143
39 1 0.353513 0.650172 0.363121
43 1 0.755948 0.503162 0.249474
47 1 0.875 0.625 0.375
34 1 0 0.75 0.25
38 1 0.125 0.875 0.375
42 1 0.487414 0.761703 0.237627
46 1 0.625 0.875 0.375
49 1 0 0.5 0.5
53 1 0.125 0.625 0.625
61 1 0.621849 0.609699 0.620507
52 1 0.256509 0.746036 0.507664
56 1 0.375 0.875 0.625
57 1 0.875 0.875 0.625
60 1 0.7572 0.738578 0.492851
51 1 0.248489 0.502738 0.751655
55 1 0.375 0.625 0.875
59 1 0.751161 0.501095 0.751902
63 1 0.875 0.625 0.875
50 1 0 0.75 0.75
54 1 0.125 0.875 0.875
58 1 0.509011 0.754966 0.749827
62 1 0.625 0.875 0.875
ITEM: TIMESTEP
1700
ITEM: NUMBER OF ATOMS
63
ITEM: BOX BOUNDS pp pp pp
0.0000000000000000e+00 1.0859999999999999e+01
0.0000000000000000e+00 1.0859999999999999e+01
0.0000000000000000e+00 1.0859999999999999e+01
ITEM: ATOMS id type xs ys zs
1 1 0 0 0
5 1 0.125 0.125 0.125
9 1 0.5 0 0
13 1 0.625 0.125 0.125
4 1 0.25 0.25 0
8 1 0.375 0.375 0.125
12 1 0.75 0.25 0
16 1 0.875 0.375 0.125
3 1 0.25 0 0.25
7 1 0.375 0.125 0.375
11 1 0.75 0 0.25
15 1 0.875 0.125 0.375
2 1 0 0.25 0.25
6 1 0.125 0.375 0.375
10 1 0.499389 0.249544 0.259681
14 1 0.627971 0.364496 0.363571
17 1 0 0 0.5
21 1 0.125 0.125 0.625
25 1 0.5 0 0.5
29 1 0.625 0.125 0.625
20 1 0.24693 0.252518 0.497348
24 1 0.39141 0.376304 0.621857
28 1 0.749618 0.246923 0.490573
32 1 0.875 0.375 0.625
19 1 0.25 0 0.75
23 1 0.375 0.125 0.875
27 1 0.75 0 0.75
31 1 0.875 0.125 0.875
18 1 0 0.25 0.75
22 1 0.125 0.375 0.875
26 1 0.505548 0.246701 0.757623
30 1 0.625 0.375 0.875
33 1 0 0.5 0
37 1 0.125 0.625 0.125
41 1 0.5 0.5 0
45 1 0.625 0.625 0.125
36 1 0.25 0.75 0
40 1 0.375 0.875 0.125
44 1 0.75 0.75 0
48 1 0.875 0.875 0.125
35 1 0.260807 0.50774 0.25378
39 1 0.351784 0.639125 0.357873
43 1 0.758015 0.502772 0.248023
47 1 0.875 0.625 0.375
34 1 0 0.75 0.25
38 1 0.125 0.875 0.375
42 1 0.506876 0.756149 0.244418
46 1 0.625 0.875 0.375
49 1 0 0.5 0.5
53 1 0.125 0.625 0.625
61 1 0.616733 0.628554 0.614098
52 1 0.25372 0.746635 0.502777
56 1 0.375 0.875 0.625
57 1 0.875 0.875 0.625
60 1 0.746422 0.75698 0.500411
51 1 0.259857 0.493233 0.7514
55 1 0.375 0.625 0.875
59 1 0.751077 0.494916 0.74902
63 1 0.875 0.625 0.875
50 1 0 0.75 0.75
54 1 0.125 0.875 0.875
58 1 0.496866 0.751383 0.747789