ITEM: TIMESTEP
0
ITEM: NUMBER OF ATOMS
63
ITEM: BOX BOUNDS pp pp pp
0.0000000000000000e+00 1.0859999999999999e+01
0.0000000000000000e+00 1.0859999999999999e+01
0.0000000000000000e+00 1.0859999999999999e+01
ITEM: ATOMS id type xs ys zs
1 1 0 0 0
5 1 0.125 0.125 0.125
9 1 0.5 0 0
13 1 0.625 0.125 0.125
4 1 0.25 0.25 0
8 1 0.375 0.375 0.125
12 1 0.75 0.25 0
16 1 0.875 0.375 0.125
3 1 0.25 0 0.25
7 1 0.375 0.125 0.375
11 1 0.75 0 0.25
15 1 0.875 0.125 0.375
2 1 0 0.25 0.25
6 1 0.125 0.375 0.375
10 1 0.5 0.25 0.25
14 1 0.625 0.375 0.375
17 1 0 0 0.5
21 1 0.125 0.125 0.625
25 1 0.5 0 0.5
29 1 0.625 0.125 0.625
20 1 0.25 0.25 0.5
24 1 0.375 0.375 0.625
28 1 0.75 0.25 0.5
32 1 0.875 0.375 0.625
19 1 0.25 0 0.75
23 1 0.375 0.125 0.875
27 1 0.75 0 0.75
31 1 0.875 0.125 0.875
18 1 0 0.25 0.75
22 1 0.125 0.375 0.875
26 1 0.5 0.25 0.75
30 1 0.625 0.375 0.875
33 1 0 0.5 0
37 1 0.125 0.625 0.125
41 1 0.5 0.5 0
45 1 0.625 0.625 0.125
36 1 0.25 0.75 0
40 1 0.375 0.875 0.125
44 1 0.75 0.75 0
48 1 0.875 0.875 0.125
35 1 0.25 0.5 0.25
39 1 0.375 0.625 0.375
43 1 0.75 0.5 0.25
47 1 0.875 0.625 0.375
34 1 0 0.75 0.25
38 1 0.125 0.875 0.375
42 1 0.5 0.75 0.25
46 1 0.625 0.875 0.375
49 1 0 0.5 0.5
53 1 0.125 0.625 0.625
61 1 0.625 0.625 0.625
52 1 0.25 0.75 0.5
56 1 0.375 0.875 0.625
57 1 0.875 0.875 0.625
60 1 0.75 0.75 0.5
51 1 0.25 0.5 0.75
55 1 0.375 0.625 0.875
59 1 0.75 0.5 0.75
63 1 0.875 0.625 0.875
50 1 0 0.75 0.75
54 1 0.125 0.875 0.875
58 1 0.5 0.75 0.75
62 1 0.625 0.875 0.875
ITEM: TIMESTEP
100
ITEM: NUMBER OF ATOMS
63
ITEM: BOX BOUNDS pp pp pp
0.0000000000000000e+00 1.0859999999999999e+01
0.0000000000000000e+00 1.0859999999999999e+01
0.0000000000000000e+00 1.0859999999999999e+01
ITEM: ATOMS id type xs ys zs
1 1 0 0 0
5 1 0.125 0.125 0.125
9 1 0.5 0 0
13 1 0.625 0.125 0.125
4 1 0.25 0.25 0
8 1 0.375 0.375 0.125
12 1 0.75 0.25 0
16 1 0.875 0.375 0.125
3 1 0.25 0 0.25
7 1 0.375 0.125 0.375
11 1 0.75 0 0.25
15 1 0.875 0.125 0.375
2 1 0 0.25 0.25
6 1 0.125 0.375 0.375
10 1 0.494192 0.249444 0.253158
14 1 0.627066 0.378643 0.377124
17 1 0 0 0.5
21 1 0.125 0.125 0.625
25 1 0.5 0 0.5
29 1 0.625 0.125 0.625
20 1 0.242995 0.253704 0.502862
24 1 0.378129 0.367384 0.624529
28 1 0.750202 0.245682 0.487615
32 1 0.875 0.375 0.625
19 1 0.25 0 0.75
23 1 0.375 0.125 0.875
27 1 0.75 0 0.75
31 1 0.875 0.125 0.875
18 1 0 0.25 0.75
22 1 0.125 0.375 0.875
26 1 0.502389 0.248821 0.753103
30 1 0.625 0.375 0.875
33 1 0 0.5 0
37 1 0.125 0.625 0.125
41 1 0.5 0.5 0
45 1 0.625 0.625 0.125
36 1 0.25 0.75 0
40 1 0.375 0.875 0.125
44 1 0.75 0.75 0
48 1 0.875 0.875 0.125
35 1 0.253022 0.502508 0.245124
39 1 0.38464 0.626572 0.376912
43 1 0.748195 0.496414 0.251689
47 1 0.875 0.625 0.375
34 1 0 0.75 0.25
38 1 0.125 0.875 0.375
42 1 0.50572 0.74188 0.257379
46 1 0.625 0.875 0.375
49 1 0 0.5 0.5
53 1 0.125 0.625 0.625
61 1 0.621918 0.62737 0.625145
52 1 0.252149 0.745933 0.494305
56 1 0.375 0.875 0.625
57 1 0.875 0.875 0.625
60 1 0.750205 0.76359 0.499301
51 1 0.251269 0.50014 0.755889
55 1 0.375 0.625 0.875
59 1 0.747245 0.50181 0.745214
63 1 0.875 0.625 0.875
50 1 0 0.75 0.75
54 1 0.125 0.875 0.875
58 1 0.491608 0.75014 0.750978
62 1 0.625 0.875 0.875
ITEM: TIMESTEP
200
ITEM: NUMBER OF ATOMS
63
ITEM: BOX BOUNDS pp pp pp
0.0000000000000000e+00 1.0859999999999999e+01
0.0000000000000000e+00 1.0859999999999999e+01
0.0000000000000000e+00 1.0859999999999999e+01
ITEM: ATOMS id type xs ys zs
1 1 0 0 0
5 1 0.125 0.125 0.125
9 1 0.5 0 0
13 1 0.625 0.125 0.125
4 1 0.25 0.25 0
8 1 0.375 0.375 0.125
12 1 0.75 0.25 0
16 1 0.875 0.375 0.125
3 1 0.25 0 0.25
7 1 0.375 0.125 0.375
11 1 0.75 0 0.25
15 1 0.875 0.125 0.375
2 1 0 0.25 0.25
6 1 0.125 0.375 0.375
10 1 0.49242 0.250622 0.255323
14 1 0.626561 0.379732 0.377688
17 1 0 0 0.5
21 1 0.125 0.125 0.625
25 1 0.5 0 0.5
29 1 0.625 0.125 0.625
20 1 0.239923 0.254737 0.504266
24 1 0.379222 0.36253 0.62617
28 1 0.749289 0.244234 0.482393
32 1 0.875 0.375 0.625
19 1 0.25 0 0.75
23 1 0.375 0.125 0.875
27 1 0.75 0 0.75
31 1 0.875 0.125 0.875
18 1 0 0.25 0.75
22 1 0.125 0.375 0.875
26 1 0.504265 0.247194 0.754793
30 1 0.625 0.375 0.875
33 1 0 0.5 0
37 1 0.125 0.625 0.125
41 1 0.5 0.5 0
45 1 0.625 0.625 0.125
36 1 0.25 0.75 0
40 1 0.375 0.875 0.125
44 1 0.75 0.75 0
48 1 0.875 0.875 0.125
35 1 0.2562 0.504649 0.244309
39 1 0.39023 0.624149 0.378744
43 1 0.747739 0.49558 0.252135
47 1 0.875 0.625 0.375
34 1 0 0.75 0.25
38 1 0.125 0.875 0.375
42 1 0.510686 0.73892 0.260492
46 1 0.625 0.875 0.375
49 1 0 0.5 0.5
53 1 0.125 0.625 0.625
61 1 0.619771 0.632256 0.624378
52 1 0.254115 0.743716 0.491453
56 1 0.375 0.875 0.625
57 1 0.875 0.875 0.625
60 1 0.750073 0.769247 0.499246
51 1 0.252863 0.499056 0.757289
55 1 0.375 0.625 0.875
59 1 0.745123 0.50301 0.742467
63 1 0.875 0.625 0.875
50 1 0 0.75 0.75
54 1 0.125 0.875 0.875
58 1 0.487773 0.750421 0.751465
62 1 0.625 0.875 0.875
ITEM: TIMESTEP
300
ITEM: NUMBER OF ATOMS
63
ITEM: BOX BOUNDS pp pp pp
0.0000000000000000e+00 1.0859999999999999e+01
0.0000000000000000e+00 1.0859999999999999e+01
0.0000000000000000e+00 1.0859999999999999e+01
ITEM: ATOMS id type xs ys zs
1 1 0 0 0
5 1 0.125 0.125 0.125
9 1 0.5 0 0
13 1 0.625 0.125 0.125
4 1 0.25 0.25 0
8 1 0.375 0.375 0.125
12 1 0.75 0.25 0
16 1 0.875 0.375 0.125
3 1 0.25 0 0.25
7 1 0.375 0.125 0.375
11 1 0.75 0 0.25
15 1 0.875 0.125 0.375
2 1 0 0.25 0.25
6 1 0.125 0.375 0.375
10 1 0.495709 0.253284 0.255453
14 1 0.622968 0.378348 0.376505
17 1 0 0 0.5
21 1 0.125 0.125 0.625
25 1 0.5 0 0.5
29 1 0.625 0.125 0.625
20 1 0.242174 0.252252 0.503756
24 1 0.377952 0.361598 0.629797
28 1 0.746966 0.246406 0.486831
32 1 0.875 0.375 0.625
19 1 0.25 0 0.75
23 1 0.375 0.125 0.875
27 1 0.75 0 0.75
31 1 0.875 0.125 0.875
18 1 0 0.25 0.75
22 1 0.125 0.375 0.875
26 1 0.505247 0.245074 0.754842
30 1 0.625 0.375 0.875
33 1 0 0.5 0
37 1 0.125 0.625 0.125
41 1 0.5 0.5 0
45 1 0.625 0.625 0.125
36 1 0.25 0.75 0
40 1 0.375 0.875 0.125
44 1 0.75 0.75 0
48 1 0.875 0.875 0.125
35 1 0.258647 0.50569 0.248289
39 1 0.39118 0.617464 0.380546
43 1 0.748897 0.49813 0.251021
47 1 0.875 0.625 0.375
34 1 0 0.75 0.25
38 1 0.125 0.875 0.375
42 1 0.513148 0.742032 0.258367
46 1 0.625 0.875 0.375
49 1 0 0.5 0.5
53 1 0.125 0.625 0.625
61 1 0.619095 0.639031 0.622603
52 1 0.255388 0.743944 0.492546
56 1 0.375 0.875 0.625
57 1 0.875 0.875 0.625
60 1 0.749865 0.764398 0.499802
51 1 0.254223 0.496737 0.75324
55 1 0.375 0.625 0.875
59 1 0.744031 0.50367 0.74256
63 1 0.875 0.625 0.875
50 1 0 0.75 0.75
54 1 0.125 0.875 0.875
58 1 0.490238 0.751477 0.751592
62 1 0.625 0.875 0.875
ITEM: TIMESTEP
400
ITEM: NUMBER OF ATOMS
63
ITEM: BOX BOUNDS pp pp pp
0.0000000000000000e+00 1.0859999999999999e+01
0.0000000000000000e+00 1.0859999999999999e+01
0.0000000000000000e+00 1.0859999999999999e+01
ITEM: ATOMS id type xs ys zs
1 1 0 0 0
5 1 0.125 0.125 0.125
9 1 0.5 0 0
13 1 0.625 0.125 0.125
4 1 0.25 0.25 0
8 1 0.375 0.375 0.125
12 1 0.75 0.25 0
16 1 0.875 0.375 0.125
3 1 0.25 0 0.25
7 1 0.375 0.125 0.375
11 1 0.75 0 0.25
15 1 0.875 0.125 0.375
2 1 0 0.25 0.25
6 1 0.125 0.375 0.375
10 1 0.501431 0.255151 0.253005
14 1 0.61894 0.376432 0.37413
17 1 0 0 0.5
21 1 0.125 0.125 0.625
25 1 0.5 0 0.5
29 1 0.625 0.125 0.625
20 1 0.248864 0.247473 0.501426
24 1 0.374849 0.363573 0.633941
28 1 0.744813 0.251083 0.498404
32 1 0.875 0.375 0.625
19 1 0.25 0 0.75
23 1 0.375 0.125 0.875
27 1 0.75 0 0.75
31 1 0.875 0.125 0.875
18 1 0 0.25 0.75
22 1 0.125 0.375 0.875
26 1 0.505057 0.243464 0.75381
30 1 0.625 0.375 0.875
33 1 0 0.5 0
37 1 0.125 0.625 0.125
41 1 0.5 0.5 0
45 1 0.625 0.625 0.125
36 1 0.25 0.75 0
40 1 0.375 0.875 0.125
44 1 0.75 0.75 0
48 1 0.875 0.875 0.125
35 1 0.258827 0.504469 0.25463
39 1 0.389779 0.610964 0.381605
43 1 0.750346 0.502024 0.249457
47 1 0.875 0.625 0.375
34 1 0 0.75 0.25
38 1 0.125 0.875 0.375
42 1 0.509875 0.747969 0.253115
46 1 0.625 0.875 0.375
49 1 0 0.5 0.5
53 1 0.125 0.625 0.625
61 1 0.620291 0.644403 0.621044
52 1 0.255973 0.745575 0.496763
56 1 0.375 0.875 0.625
57 1 0.875 0.875 0.625
60 1 0.750093 0.752388 0.50004
51 1 0.254564 0.494576 0.746511
55 1 0.375 0.625 0.875
59 1 0.743865 0.504439 0.744654
63 1 0.875 0.625 0.875
50 1 0 0.75 0.75
54 1 0.125 0.875 0.875
58 1 0.497117 0.753764 0.75193
62 1 0.625 0.875 0.875
ITEM: TIMESTEP
500
ITEM: NUMBER OF ATOMS
63
ITEM: BOX BOUNDS pp pp pp
0.0000000000000000e+00 1.0859999999999999e+01
0.0000000000000000e+00 1.0859999999999999e+01
0.0000000000000000e+00 1.0859999999999999e+01
ITEM: ATOMS id type xs ys zs
1 1 0 0 0
5 1 0.125 0.125 0.125
9 1 0.5 0 0
13 1 0.625 0.125 0.125
4 1 0.25 0.25 0
8 1 0.375 0.375 0.125
12 1 0.75 0.25 0
16 1 0.875 0.375 0.125
3 1 0.25 0 0.25
7 1 0.375 0.125 0.375
11 1 0.75 0 0.25
15 1 0.875 0.125 0.375
2 1 0 0.25 0.25
6 1 0.125 0.375 0.375
10 1 0.505222 0.253624 0.248041
14 1 0.61831 0.37629 0.372558
17 1 0 0 0.5
21 1 0.125 0.125 0.625
25 1 0.5 0 0.5
29 1 0.625 0.125 0.625
20 1 0.256467 0.243422 0.498576
24 1 0.371898 0.365389 0.635774
28 1 0.744156 0.256291 0.51049
32 1 0.875 0.375 0.625
19 1 0.25 0 0.75
23 1 0.375 0.125 0.875
27 1 0.75 0 0.75
31 1 0.875 0.125 0.875
18 1 0 0.25 0.75
22 1 0.125 0.375 0.875
26 1 0.503581 0.243712 0.752682
30 1 0.625 0.375 0.875
33 1 0 0.5 0
37 1 0.125 0.625 0.125
41 1 0.5 0.5 0
45 1 0.625 0.625 0.125
36 1 0.25 0.75 0
40 1 0.375 0.875 0.125
44 1 0.75 0.75 0
48 1 0.875 0.875 0.125
35 1 0.255612 0.50027 0.259419
39 1 0.387996 0.608999 0.382278
43 1 0.750811 0.50448 0.248595
47 1 0.875 0.625 0.375
34 1 0 0.75 0.25
38 1 0.125 0.875 0.375
42 1 0.501021 0.753437 0.247359
46 1 0.625 0.875 0.375
49 1 0 0.5 0.5
53 1 0.125 0.625 0.625
61 1 0.622412 0.643843 0.621767
52 1 0.255984 0.747063 0.501815
56 1 0.375 0.875 0.625
57 1 0.875 0.875 0.625
60 1 0.751872 0.741668 0.498446
51 1 0.252548 0.494983 0.742196
55 1 0.375 0.625 0.875
59 1 0.744556 0.505559 0.747306
63 1 0.875 0.625 0.875
50 1 0 0.75 0.75
54 1 0.125 0.875 0.875
58 1 0.504021 0.756729 0.752745
62 1 0.625 0.875 0.875
ITEM: TIMESTEP
600
ITEM: NUMBER OF ATOMS
63
ITEM: BOX BOUNDS pp pp pp
0.0000000000000000e+00 1.0859999999999999e+01
0.0000000000000000e+00 1.0859999999999999e+01
0.0000000000000000e+00 1.0859999999999999e+01
ITEM: ATOMS id type xs ys zs
1 1 0 0 0
5 1 0.125 0.125 0.125
9 1 0.5 0 0
13 1 0.625 0.125 0.125
4 1 0.25 0.25 0
8 1 0.375 0.375 0.125
12 1 0.75 0.25 0
16 1 0.875 0.375 0.125
3 1 0.25 0 0.25
7 1 0.375 0.125 0.375
11 1 0.75 0 0.25
15 1 0.875 0.125 0.375
2 1 0 0.25 0.25
6 1 0.125 0.375 0.375
10 1 0.504942 0.249355 0.243039
14 1 0.622215 0.377911 0.372543
17 1 0 0 0.5
21 1 0.125 0.125 0.625
25 1 0.5 0 0.5
29 1 0.625 0.125 0.625
20 1 0.260148 0.243208 0.497376
24 1 0.370893 0.365123 0.633595
28 1 0.744299 0.2599 0.516247
32 1 0.875 0.375 0.625
19 1 0.25 0 0.75
23 1 0.375 0.125 0.875
27 1 0.75 0 0.75
31 1 0.875 0.125 0.875
18 1 0 0.25 0.75
22 1 0.125 0.375 0.875
26 1 0.501269 0.246164 0.752138
30 1 0.625 0.375 0.875
33 1 0 0.5 0
37 1 0.125 0.625 0.125
41 1 0.5 0.5 0
45 1 0.625 0.625 0.125
36 1 0.25 0.75 0
40 1 0.375 0.875 0.125
44 1 0.75 0.75 0
48 1 0.875 0.875 0.125
35 1 0.250461 0.494867 0.260054
39 1 0.385645 0.612751 0.382561
43 1 0.750131 0.504067 0.248932
47 1 0.875 0.625 0.375
34 1 0 0.75 0.25
38 1 0.125 0.875 0.375
42 1 0.49158 0.755632 0.244351
46 1 0.625 0.875 0.375
49 1 0 0.5 0.5
53 1 0.125 0.625 0.625
61 1 0.624589 0.635984 0.625676
52 1 0.255285 0.747423 0.50502
56 1 0.375 0.875 0.625
57 1 0.875 0.875 0.625
60 1 0.754387 0.738814 0.49567
51 1 0.248144 0.498678 0.743494
55 1 0.375 0.625 0.875
59 1 0.74614 0.506272 0.749459
63 1 0.875 0.625 0.875
50 1 0 0.75 0.75
54 1 0.125 0.875 0.875
58 1 0.506892 0.758321 0.753026
62 1 0.625 0.875 0.875
ITEM: TIMESTEP
700
ITEM: NUMBER OF ATOMS
63
ITEM: BOX BOUNDS pp pp pp
0.0000000000000000e+00 1.0859999999999999e+01
0.0000000000000000e+00 1.0859999999999999e+01
0.0000000000000000e+00 1.0859999999999999e+01
ITEM: ATOMS id type xs ys zs
1 1 0 0 0
5 1 0.125 0.125 0.125
9 1 0.5 0 0
13 1 0.625 0.125 0.125
4 1 0.25 0.25 0
8 1 0.375 0.375 0.125
12 1 0.75 0.25 0
16 1 0.875 0.375 0.125
3 1 0.25 0 0.25
7 1 0.375 0.125 0.375
11 1 0.75 0 0.25
15 1 0.875 0.125 0.375
2 1 0 0.25 0.25
6 1 0.125 0.375 0.375
10 1 0.501422 0.245819 0.242004
14 1 0.628143 0.378851 0.372941
17 1 0 0 0.5
21 1 0.125 0.125 0.625
25 1 0.5 0 0.5
29 1 0.625 0.125 0.625
20 1 0.257223 0.247088 0.498392
24 1 0.371028 0.365114 0.629199
28 1 0.744298 0.260222 0.512739
32 1 0.875 0.375 0.625
19 1 0.25 0 0.75
23 1 0.375 0.125 0.875
27 1 0.75 0 0.75
31 1 0.875 0.125 0.875
18 1 0 0.25 0.75
22 1 0.125 0.375 0.875
26 1 0.499175 0.249562 0.752035
30 1 0.625 0.375 0.875
33 1 0 0.5 0
37 1 0.125 0.625 0.125
41 1 0.5 0.5 0
45 1 0.625 0.625 0.125
36 1 0.25 0.75 0
40 1 0.375 0.875 0.125
44 1 0.75 0.75 0
48 1 0.875 0.875 0.125
35 1 0.246896 0.492263 0.256156
39 1 0.381075 0.620382 0.381558
43 1 0.749248 0.501465 0.250091
47 1 0.875 0.625 0.375
34 1 0 0.75 0.25
38 1 0.125 0.875 0.375
42 1 0.487101 0.752667 0.246544
46 1 0.625 0.875 0.375
49 1 0 0.5 0.5
53 1 0.125 0.625 0.625
61 1 0.627287 0.62459 0.630677
52 1 0.253724 0.746837 0.504829
56 1 0.375 0.875 0.625
57 1 0.875 0.875 0.625
60 1 0.754227 0.744141 0.495063
51 1 0.244426 0.50295 0.749278
55 1 0.375 0.625 0.875
59 1 0.748874 0.504823 0.751177
63 1 0.875 0.625 0.875
50 1 0 0.75 0.75
54 1 0.125 0.875 0.875
58 1 0.504554 0.756341 0.751538
62 1 0.625 0.875 0.875
ITEM: TIMESTEP
800
ITEM: NUMBER OF ATOMS
63
ITEM: BOX BOUNDS pp pp pp
0.0000000000000000e+00 1.0859999999999999e+01
0.0000000000000000e+00 1.0859999999999999e+01
0.0000000000000000e+00 1.0859999999999999e+01
ITEM: ATOMS id type xs ys zs
1 1 0 0 0
5 1 0.125 0.125 0.125
9 1 0.5 0 0
13 1 0.625 0.125 0.125
4 1 0.25 0.25 0
8 1 0.375 0.375 0.125
12 1 0.75 0.25 0
16 1 0.875 0.375 0.125
3 1 0.25 0 0.25
7 1 0.375 0.125 0.375
11 1 0.75 0 0.25
15 1 0.875 0.125 0.375
2 1 0 0.25 0.25
6 1 0.125 0.375 0.375
10 1 0.497038 0.245451 0.246285
14 1 0.632043 0.377127 0.372857
17 1 0 0 0.5
21 1 0.125 0.125 0.625
25 1 0.5 0 0.5
29 1 0.625 0.125 0.625
20 1 0.24891 0.251995 0.499888
24 1 0.370942 0.3687 0.625797
28 1 0.745375 0.256528 0.502101
32 1 0.875 0.375 0.625
19 1 0.25 0 0.75
23 1 0.375 0.125 0.875
27 1 0.75 0 0.75
31 1 0.875 0.125 0.875
18 1 0 0.25 0.75
22 1 0.125 0.375 0.875
26 1 0.49814 0.252044 0.75164
30 1 0.625 0.375 0.875
33 1 0 0.5 0
37 1 0.125 0.625 0.125
41 1 0.5 0.5 0
45 1 0.625 0.625 0.125
36 1 0.25 0.75 0
40 1 0.375 0.875 0.125
44 1 0.75 0.75 0
48 1 0.875 0.875 0.125
35 1 0.246883 0.494841 0.249425
39 1 0.373216 0.628258 0.37875
43 1 0.749667 0.498908 0.25076
47 1 0.875 0.625 0.375
34 1 0 0.75 0.25
38 1 0.125 0.875 0.375
42 1 0.489862 0.746412 0.252384
46 1 0.625 0.875 0.375
49 1 0 0.5 0.5
53 1 0.125 0.625 0.625
61 1 0.629743 0.615496 0.633555
52 1 0.2511 0.746888 0.501923
56 1 0.375 0.875 0.625
57 1 0.875 0.875 0.625
60 1 0.750485 0.752864 0.498216
51 1 0.244154 0.504998 0.755781
55 1 0.375 0.625 0.875
59 1 0.753204 0.499607 0.753443
63 1 0.875 0.625 0.875
50 1 0 0.75 0.75
54 1 0.125 0.875 0.875
58 1 0.499292 0.750417 0.748899
62 1 0.625 0.875 0.875
ITEM: TIMESTEP
900
ITEM: NUMBER OF ATOMS
63
ITEM: BOX BOUNDS pp pp pp
0.0000000000000000e+00 1.0859999999999999e+01
0.0000000000000000e+00 1.0859999999999999e+01
0.0000000000000000e+00 1.0859999999999999e+01
ITEM: ATOMS id type xs ys zs
1 1 0 0 0
5 1 0.125 0.125 0.125
9 1 0.5 0 0
13 1 0.625 0.125 0.125
4 1 0.25 0.25 0
8 1 0.375 0.375 0.125
12 1 0.75 0.25 0
16 1 0.875 0.375 0.125
3 1 0.25 0 0.25
7 1 0.375 0.125 0.375
11 1 0.75 0 0.25
15 1 0.875 0.125 0.375
2 1 0 0.25 0.25
6 1 0.125 0.375 0.375
10 1 0.49475 0.248505 0.2533
14 1 0.63116 0.373011 0.371507
17 1 0 0 0.5
21 1 0.125 0.125 0.625
25 1 0.5 0 0.5
29 1 0.625 0.125 0.625
20 1 0.240202 0.254833 0.500778
24 1 0.369855 0.37617 0.624934
28 1 0.749385 0.249286 0.49055
32 1 0.875 0.375 0.625
19 1 0.25 0 0.75
23 1 0.375 0.125 0.875
27 1 0.75 0 0.75
31 1 0.875 0.125 0.875
18 1 0 0.25 0.75
22 1 0.125 0.375 0.875
26 1 0.498127 0.252856 0.750194
30 1 0.625 0.375 0.875
33 1 0 0.5 0
37 1 0.125 0.625 0.125
41 1 0.5 0.5 0
45 1 0.625 0.625 0.125
36 1 0.25 0.75 0
40 1 0.375 0.875 0.125
44 1 0.75 0.75 0
48 1 0.875 0.875 0.125
35 1 0.24928 0.501078 0.243486
39 1 0.363051 0.632223 0.374094
43 1 0.751725 0.498158 0.249986
47 1 0.875 0.625 0.375
34 1 0 0.75 0.25
38 1 0.125 0.875 0.375
42 1 0.498503 0.741999 0.257373
46 1 0.625 0.875 0.375
49 1 0 0.5 0.5
53 1 0.125 0.625 0.625
61 1 0.630909 0.611558 0.632972
52 1 0.247088 0.749606 0.498913
56 1 0.375 0.875 0.625
57 1 0.875 0.875 0.625
60 1 0.745637 0.758679 0.503858
51 1 0.247116 0.504188 0.75909
55 1 0.375 0.625 0.875
59 1 0.75814 0.491905 0.756283
63 1 0.875 0.625 0.875
50 1 0 0.75 0.75
54 1 0.125 0.875 0.875
58 1 0.495054 0.742675 0.746644
62 1 0.625 0.875 0.875
ITEM: TIMESTEP
1000
ITEM: NUMBER OF ATOMS
63
ITEM: BOX BOUNDS pp pp pp
0.0000000000000000e+00 1.0859999999999999e+01
0.0000000000000000e+00 1.0859999999999999e+01
0.0000000000000000e+00 1.0859999999999999e+01
ITEM: ATOMS id type xs ys zs
1 1 0 0 0
5 1 0.125 0.125 0.125
9 1 0.5 0 0
13 1 0.625 0.125 0.125
4 1 0.25 0.25 0
8 1 0.375 0.375 0.125
12 1 0.75 0.25 0
16 1 0.875 0.375 0.125
3 1 0.25 0 0.25
7 1 0.375 0.125 0.375
11 1 0.75 0 0.25
15 1 0.875 0.125 0.375
2 1 0 0.25 0.25
6 1 0.125 0.375 0.375
10 1 0.495682 0.253248 0.258496
14 1 0.627251 0.368545 0.368963
17 1 0 0 0.5
21 1 0.125 0.125 0.625
25 1 0.5 0 0.5
29 1 0.625 0.125 0.625
20 1 0.236922 0.254979 0.501715
24 1 0.367742 0.384488 0.625889
28 1 0.754173 0.241942 0.484672
32 1 0.875 0.375 0.625
19 1 0.25 0 0.75
23 1 0.375 0.125 0.875
27 1 0.75 0 0.75
31 1 0.875 0.125 0.875
18 1 0 0.25 0.75
22 1 0.125 0.375 0.875
26 1 0.498446 0.252883 0.747553
30 1 0.625 0.375 0.875
33 1 0 0.5 0
37 1 0.125 0.625 0.125
41 1 0.5 0.5 0
45 1 0.625 0.625 0.125
36 1 0.25 0.75 0
40 1 0.375 0.875 0.125
44 1 0.75 0.75 0
48 1 0.875 0.875 0.125
35 1 0.251349 0.506735 0.241115
39 1 0.354199 0.632165 0.367875
43 1 0.753564 0.499055 0.248378
47 1 0.875 0.625 0.375
34 1 0 0.75 0.25
38 1 0.125 0.875 0.375
42 1 0.508392 0.741842 0.259139
46 1 0.625 0.875 0.375
49 1 0 0.5 0.5
53 1 0.125 0.625 0.625
61 1 0.631427 0.611536 0.630277
52 1 0.242419 0.754747 0.498287
56 1 0.375 0.875 0.625
57 1 0.875 0.875 0.625
60 1 0.742013 0.758147 0.509693
51 1 0.251001 0.501521 0.757435
55 1 0.375 0.625 0.875
59 1 0.761035 0.486022 0.758444
63 1 0.875 0.625 0.875
50 1 0 0.75 0.75
54 1 0.125 0.875 0.875
58 1 0.494614 0.736477 0.745126
62 1 0.625 0.875 0.875
ITEM: TIMESTEP
1100
ITEM: NUMBER OF ATOMS
63
ITEM: BOX BOUNDS pp pp pp
0.0000000000000000e+00 1.0859999999999999e+01
0.0000000000000000e+00 1.0859999999999999e+01
0.0000000000000000e+00 1.0859999999999999e+01
ITEM: ATOMS id type xs ys zs
1 1 0 0 0
5 1 0.125 0.125 0.125
9 1 0.5 0 0
13 1 0.625 0.125 0.125
4 1 0.25 0.25 0
8 1 0.375 0.375 0.125
12 1 0.75 0.25 0
16 1 0.875 0.375 0.125
3 1 0.25 0 0.25
7 1 0.375 0.125 0.375
11 1 0.75 0 0.25
15 1 0.875 0.125 0.375
2 1 0 0.25 0.25
6 1 0.125 0.375 0.375
10 1 0.497265 0.255738 0.257683
14 1 0.625731 0.366568 0.367701
17 1 0 0 0.5
21 1 0.125 0.125 0.625
25 1 0.5 0 0.5
29 1 0.625 0.125 0.625
20 1 0.24154 0.253536 0.502895
24 1 0.366518 0.38919 0.626274
28 1 0.754738 0.239892 0.487979
32 1 0.875 0.375 0.625
19 1 0.25 0 0.75
23 1 0.375 0.125 0.875
27 1 0.75 0 0.75
31 1 0.875 0.125 0.875
18 1 0 0.25 0.75
22 1 0.125 0.375 0.875
26 1 0.498298 0.253512 0.744572
30 1 0.625 0.375 0.875
33 1 0 0.5 0
37 1 0.125 0.625 0.125
41 1 0.5 0.5 0
45 1 0.625 0.625 0.125
36 1 0.25 0.75 0
40 1 0.375 0.875 0.125
44 1 0.75 0.75 0
48 1 0.875 0.875 0.125
35 1 0.250295 0.506963 0.241359
39 1 0.350645 0.633423 0.362547
43 1 0.753138 0.50036 0.247207
47 1 0.875 0.625 0.375
34 1 0 0.75 0.25
38 1 0.125 0.875 0.375
42 1 0.513743 0.744385 0.257759
46 1 0.625 0.875 0.375
49 1 0 0.5 0.5
53 1 0.125 0.625 0.625
61 1 0.631924 0.61266 0.627798
52 1 0.239685 0.758996 0.500626
56 1 0.375 0.875 0.625
57 1 0.875 0.875 0.625
60 1 0.74098 0.75225 0.51287
51 1 0.252545 0.499701 0.752952
55 1 0.375 0.625 0.875
59 1 0.760206 0.485585 0.758928
63 1 0.875 0.625 0.875
50 1 0 0.75 0.75
54 1 0.125 0.875 0.875
58 1 0.498185 0.734713 0.744119
62 1 0.625 0.875 0.875
ITEM: TIMESTEP
1200
ITEM: NUMBER OF ATOMS
63
ITEM: BOX BOUNDS pp pp pp
0.0000000000000000e+00 1.0859999999999999e+01
0.0000000000000000e+00 1.0859999999999999e+01
0.0000000000000000e+00 1.0859999999999999e+01
ITEM: ATOMS id type xs ys zs
1 1 0 0 0
5 1 0.125 0.125 0.125
9 1 0.5 0 0
13 1 0.625 0.125 0.125
4 1 0.25 0.25 0
8 1 0.375 0.375 0.125
12 1 0.75 0.25 0
16 1 0.875 0.375 0.125
3 1 0.25 0 0.25
7 1 0.375 0.125 0.375
11 1 0.75 0 0.25
15 1 0.875 0.125 0.375
2 1 0 0.25 0.25
6 1 0.125 0.375 0.375
10 1 0.497508 0.253303 0.250464
14 1 0.629119 0.368443 0.369366
17 1 0 0 0.5
21 1 0.125 0.125 0.625
25 1 0.5 0 0.5
29 1 0.625 0.125 0.625
20 1 0.251714 0.251769 0.50341
24 1 0.368717 0.387486 0.623886
28 1 0.750448 0.244481 0.498795
32 1 0.875 0.375 0.625
19 1 0.25 0 0.75
23 1 0.375 0.125 0.875
27 1 0.75 0 0.75
31 1 0.875 0.125 0.875
18 1 0 0.25 0.75
22 1 0.125 0.375 0.875
26 1 0.497361 0.255102 0.742647
30 1 0.625 0.375 0.875
33 1 0 0.5 0
37 1 0.125 0.625 0.125
41 1 0.5 0.5 0
45 1 0.625 0.625 0.125
36 1 0.25 0.75 0
40 1 0.375 0.875 0.125
44 1 0.75 0.75 0
48 1 0.875 0.875 0.125
35 1 0.245625 0.50019 0.242987
39 1 0.353227 0.639462 0.360226
43 1 0.750475 0.501059 0.247292
47 1 0.875 0.625 0.375
34 1 0 0.75 0.25
38 1 0.125 0.875 0.375
42 1 0.511136 0.748034 0.253381
46 1 0.625 0.875 0.375
49 1 0 0.5 0.5
53 1 0.125 0.625 0.625
61 1 0.631778 0.612516 0.627338
52 1 0.240772 0.759525 0.504897
56 1 0.375 0.875 0.625
57 1 0.875 0.875 0.625
60 1 0.743896 0.744862 0.510683
51 1 0.249695 0.501254 0.749545
55 1 0.375 0.625 0.875
59 1 0.755996 0.491246 0.757043
63 1 0.875 0.625 0.875
50 1 0 0.75 0.75
54 1 0.125 0.875 0.875
58 1 0.503797 0.7384 0.744212
62 1 0.625 0.875 0.875
ITEM: TIMESTEP
1300
ITEM: NUMBER OF ATOMS
63
ITEM: BOX BOUNDS pp pp pp
0.0000000000000000e+00 1.0859999999999999e+01
0.0000000000000000e+00 1.0859999999999999e+01
0.0000000000000000e+00 1.0859999999999999e+01
ITEM: ATOMS id type xs ys zs
1 1 0 0 0
5 1 0.125 0.125 0.125
9 1 0.5 0 0
13 1 0.625 0.125 0.125
4 1 0.25 0.25 0
8 1 0.375 0.375 0.125
12 1 0.75 0.25 0
16 1 0.875 0.375 0.125
3 1 0.25 0 0.25
7 1 0.375 0.125 0.375
11 1 0.75 0 0.25
15 1 0.875 0.125 0.375
2 1 0 0.25 0.25
6 1 0.125 0.375 0.375
10 1 0.498269 0.247939 0.242181
14 1 0.633685 0.371826 0.372012
17 1 0 0 0.5
21 1 0.125 0.125 0.625
25 1 0.5 0 0.5
29 1 0.625 0.125 0.625
20 1 0.261451 0.25016 0.502335
24 1 0.374003 0.381739 0.620232
28 1 0.7458 0.252295 0.510739
32 1 0.875 0.375 0.625
19 1 0.25 0 0.75
23 1 0.375 0.125 0.875
27 1 0.75 0 0.75
31 1 0.875 0.125 0.875
18 1 0 0.25 0.75
22 1 0.125 0.375 0.875
26 1 0.496338 0.256474 0.742962
30 1 0.625 0.375 0.875
33 1 0 0.5 0
37 1 0.125 0.625 0.125
41 1 0.5 0.5 0
45 1 0.625 0.625 0.125
36 1 0.25 0.75 0
40 1 0.375 0.875 0.125
44 1 0.75 0.75 0
48 1 0.875 0.875 0.125
35 1 0.240922 0.491005 0.246614
39 1 0.358159 0.647441 0.359401
43 1 0.747816 0.50099 0.248679
47 1 0.875 0.625 0.375
34 1 0 0.75 0.25
38 1 0.125 0.875 0.375
42 1 0.502317 0.75283 0.246703
46 1 0.625 0.875 0.375
49 1 0 0.5 0.5
53 1 0.125 0.625 0.625
61 1 0.630084 0.611685 0.628312
52 1 0.244978 0.756424 0.508659
56 1 0.375 0.875 0.625
57 1 0.875 0.875 0.625
60 1 0.750316 0.739339 0.50326
51 1 0.244989 0.504498 0.748124
55 1 0.375 0.625 0.875
59 1 0.750527 0.500052 0.753128
63 1 0.875 0.625 0.875
50 1 0 0.75 0.75
54 1 0.125 0.875 0.875
58 1 0.508586 0.746037 0.746148
62 1 0.625 0.875 0.875
ITEM: TIMESTEP
1400
ITEM: NUMBER OF ATOMS
63
ITEM: BOX BOUNDS pp pp pp
0.0000000000000000e+00 1.0859999999999999e+01
0.0000000000000000e+00 1.0859999999999999e+01
0.0000000000000000e+00 1.0859999999999999e+01
ITEM: ATOMS id type xs ys zs
1 1 0 0 0
5 1 0.125 0.125 0.125
9 1 0.5 0 0
13 1 0.625 0.125 0.125
4 1 0.25 0.25 0
8 1 0.375 0.375 0.125
12 1 0.75 0.25 0
16 1 0.875 0.375 0.125
3 1 0.25 0 0.25
7 1 0.375 0.125 0.375
11 1 0.75 0 0.25
15 1 0.875 0.125 0.375
2 1 0 0.25 0.25
6 1 0.125 0.375 0.375
10 1 0.500288 0.243578 0.238839
14 1 0.634935 0.373682 0.373678
17 1 0 0 0.5
21 1 0.125 0.125 0.625
25 1 0.5 0 0.5
29 1 0.625 0.125 0.625
20 1 0.265072 0.248832 0.499743
24 1 0.380007 0.376976 0.618394
28 1 0.743962 0.259298 0.51747
32 1 0.875 0.375 0.625
19 1 0.25 0 0.75
23 1 0.375 0.125 0.875
27 1 0.75 0 0.75
31 1 0.875 0.125 0.875
18 1 0 0.25 0.75
22 1 0.125 0.375 0.875
26 1 0.496723 0.255783 0.745988
30 1 0.625 0.375 0.875
33 1 0 0.5 0
37 1 0.125 0.625 0.125
41 1 0.5 0.5 0
45 1 0.625 0.625 0.125
36 1 0.25 0.75 0
40 1 0.375 0.875 0.125
44 1 0.75 0.75 0
48 1 0.875 0.875 0.125
35 1 0.24046 0.486353 0.25029
39 1 0.360946 0.652234 0.358885
43 1 0.747736 0.500904 0.250485
47 1 0.875 0.625 0.375
34 1 0 0.75 0.25
38 1 0.125 0.875 0.375
42 1 0.493899 0.758449 0.239918
46 1 0.625 0.875 0.375
49 1 0 0.5 0.5
53 1 0.125 0.625 0.625
61 1 0.626268 0.614335 0.627364
52 1 0.249938 0.751988 0.509437
56 1 0.375 0.875 0.625
57 1 0.875 0.875 0.625
60 1 0.755948 0.737767 0.495148
51 1 0.243237 0.505445 0.747856
55 1 0.375 0.625 0.875
59 1 0.747217 0.506231 0.749862
63 1 0.875 0.625 0.875
50 1 0 0.75 0.75
54 1 0.125 0.875 0.875
58 1 0.510002 0.753975 0.749086
62 1 0.625 0.875 0.875
ITEM: TIMESTEP
1500
ITEM: NUMBER OF ATOMS
63
ITEM: BOX BOUNDS pp pp pp
0.0000000000000000e+00 1.0859999999999999e+01
0.0000000000000000e+00 1.0859999999999999e+01
0.0000000000000000e+00 1.0859999999999999e+01
ITEM: ATOMS id type xs ys zs
1 1 0 0 0
5 1 0.125 0.125 0.125
9 1 0.5 0 0
13 1 0.625 0.125 0.125
4 1 0.25 0.25 0
8 1 0.375 0.375 0.125
12 1 0.75 0.25 0
16 1 0.875 0.375 0.125
3 1 0.25 0 0.25
7 1 0.375 0.125 0.375
11 1 0.75 0 0.25
15 1 0.875 0.125 0.375
2 1 0 0.25 0.25
6 1 0.125 0.375 0.375
10 1 0.502044 0.243264 0.242755
14 1 0.631607 0.373096 0.373773
17 1 0 0 0.5
21 1 0.125 0.125 0.625
25 1 0.5 0 0.5
29 1 0.625 0.125 0.625
20 1 0.260808 0.248751 0.497182
24 1 0.384583 0.375282 0.619283
28 1 0.744223 0.262299 0.516036
32 1 0.875 0.375 0.625
19 1 0.25 0 0.75
23 1 0.375 0.125 0.875
27 1 0.75 0 0.75
31 1 0.875 0.125 0.875
18 1 0 0.25 0.75
22 1 0.125 0.375 0.875
26 1 0.499271 0.252305 0.750854
30 1 0.625 0.375 0.875
33 1 0 0.5 0
37 1 0.125 0.625 0.125
41 1 0.5 0.5 0
45 1 0.625 0.625 0.125
36 1 0.25 0.75 0
40 1 0.375 0.875 0.125
44 1 0.75 0.75 0
48 1 0.875 0.875 0.125
35 1 0.245679 0.490033 0.251449
39 1 0.360597 0.650868 0.358092
43 1 0.750511 0.501267 0.251704
47 1 0.875 0.625 0.375
34 1 0 0.75 0.25
38 1 0.125 0.875 0.375
42 1 0.492322 0.761703 0.236918
46 1 0.625 0.875 0.375
49 1 0 0.5 0.5
53 1 0.125 0.625 0.625
61 1 0.621053 0.622637 0.623093
52 1 0.253084 0.748866 0.507044
56 1 0.375 0.875 0.625
57 1 0.875 0.875 0.625
60 1 0.756035 0.741821 0.491638
51 1 0.24661 0.502463 0.748191
55 1 0.375 0.625 0.875
59 1 0.747368 0.506554 0.748893
63 1 0.875 0.625 0.875
50 1 0 0.75 0.75
54 1 0.125 0.875 0.875
58 1 0.506555 0.758362 0.750964
62 1 0.625 0.875 0.875
ITEM: TIMESTEP
1600
ITEM: NUMBER OF ATOMS
63
ITEM: BOX BOUNDS pp pp pp
0.0000000000000000e+00 1.0859999999999999e+01
0.0000000000000000e+00 1.0859999999999999e+01
0.0000000000000000e+00 1.0859999999999999e+01
ITEM: ATOMS id type xs ys zs
1 1 0 0 0
5 1 0.125 0.125 0.125
9 1 0.5 0 0
13 1 0.625 0.125 0.125
4 1 0.25 0.25 0
8 1 0.375 0.375 0.125
12 1 0.75 0.25 0
16 1 0.875 0.375 0.125
3 1 0.25 0 0.25
7 1 0.375 0.125 0.375
11 1 0.75 0 0.25
15 1 0.875 0.125 0.375
2 1 0 0.25 0.25
6 1 0.125 0.375 0.375
10 1 0.502592 0.247304 0.251706
14 1 0.625398 0.371664 0.372193
17 1 0 0 0.5
21 1 0.125 0.125 0.625
25 1 0.5 0 0.5
29 1 0.625 0.125 0.625
20 1 0.25143 0.25061 0.496539
24 1 0.386304 0.375114 0.622266
28 1 0.745508 0.259311 0.507062
32 1 0.875 0.375 0.625
19 1 0.25 0 0.75
23 1 0.375 0.125 0.875
27 1 0.75 0 0.75
31 1 0.875 0.125 0.875
18 1 0 0.25 0.75
22 1 0.125 0.375 0.875
26 1 0.503045 0.247301 0.755287
30 1 0.625 0.375 0.875
33 1 0 0.5 0
37 1 0.125 0.625 0.125
41 1 0.5 0.5 0
45 1 0.625 0.625 0.125
36 1 0.25 0.75 0
40 1 0.375 0.875 0.125
44 1 0.75 0.75 0
48 1 0.875 0.875 0.125
35 1 0.253475 0.499822 0.250345
39 1 0.359626 0.644103 0.356084
43 1 0.753655 0.501387 0.251962
47 1 0.875 0.625 0.375
34 1 0 0.75 0.25
38 1 0.125 0.875 0.375
42 1 0.498993 0.759613 0.240394
46 1 0.625 0.875 0.375
49 1 0 0.5 0.5
53 1 0.125 0.625 0.625
61 1 0.617062 0.633982 0.618043
52 1 0.252669 0.748638 0.503212
56 1 0.375 0.875 0.625
57 1 0.875 0.875 0.625
60 1 0.750575 0.750606 0.493963
51 1 0.253747 0.496973 0.748249
55 1 0.375 0.625 0.875
59 1 0.748564 0.503103 0.748351
63 1 0.875 0.625 0.875
50 1 0 0.75 0.75
54 1 0.125 0.875 0.875
58 1 0.498946 0.757528 0.751061
62 1 0.625 0.875 0.875
ITEM: TIMESTEP
1700
ITEM: NUMBER OF ATOMS
63
ITEM: BOX BOUNDS pp pp pp
0.0000000000000000e+00 1.0859999999999999e+01
0.0000000000000000e+00 1.0859999999999999e+01
0.0000000000000000e+00 1.0859999999999999e+01
ITEM: ATOMS id type xs ys zs
1 1 0 0 0
5 1 0.125 0.125 0.125
9 1 0.5 0 0
13 1 0.625 0.125 0.125
4 1 0.25 0.25 0
8 1 0.375 0.375 0.125
12 1 0.75 0.25 0
16 1 0.875 0.375 0.125
3 1 0.25 0 0.25
7 1 0.375 0.125 0.375
11 1 0.75 0 0.25
15 1 0.875 0.125 0.375
2 1 0 0.25 0.25
6 1 0.125 0.375 0.375
10 1 0.501104 0.25235 0.259302
14 1 0.620253 0.372479 0.370856
17 1 0 0 0.5
21 1 0.125 0.125 0.625
25 1 0.5 0 0.5
29 1 0.625 0.125 0.625
20 1 0.242541 0.253087 0.498574
24 1 0.385424 0.373621 0.626045
28 1 0.747953 0.251338 0.49444
32 1 0.875 0.375 0.625
19 1 0.25 0 0.75
23 1 0.375 0.125 0.875
27 1 0.75 0 0.75
31 1 0.875 0.125 0.875
18 1 0 0.25 0.75
22 1 0.125 0.375 0.875
26 1 0.506208 0.243104 0.757059
30 1 0.625 0.375 0.875
33 1 0 0.5 0
37 1 0.125 0.625 0.125
41 1 0.5 0.5 0
45 1 0.625 0.625 0.125
36 1 0.25 0.75 0
40 1 0.375 0.875 0.125
44 1 0.75 0.75 0
48 1 0.875 0.875 0.125
35 1 0.257466 0.50825 0.246797
39 1 0.362233 0.637101 0.355353
43 1 0.754177 0.500407 0.251162
47 1 0.875 0.625 0.375
34 1 0 0.75 0.25
38 1 0.125 0.875 0.375
42 1 0.509069 0.753398 0.247992
46 1 0.625 0.875 0.375
49 1 0 0.5 0.5
53 1 0.125 0.625 0.625
61 1 0.61547 0.643916 0.615192
52 1 0.249116 0.750807 0.499115
56 1 0.375 0.875 0.625
57 1 0.875 0.875 0.625
60 1 0.744484 0.760025 0.499254
51 1 0.260829 0.492128 0.74792
55 1 0.375 0.625 0.875
59 1 0.748433 0.499755 0.746622
63 1 0.875 0.625 0.875
50 1 0 0.75 0.75
54 1 0.125 0.875 0.875
58 1 0.490817 0.753132 0.750799