ITEM: TIMESTEP
0
ITEM: NUMBER OF ATOMS
63
ITEM: BOX BOUNDS pp pp pp
0.0000000000000000e+00 1.0859999999999999e+01
0.0000000000000000e+00 1.0859999999999999e+01
0.0000000000000000e+00 1.0859999999999999e+01
ITEM: ATOMS id type xs ys zs
1 1 0 0 0
5 1 0.125 0.125 0.125
9 1 0.5 0 0
13 1 0.625 0.125 0.125
4 1 0.25 0.25 0
8 1 0.375 0.375 0.125
12 1 0.75 0.25 0
16 1 0.875 0.375 0.125
3 1 0.25 0 0.25
7 1 0.375 0.125 0.375
11 1 0.75 0 0.25
15 1 0.875 0.125 0.375
2 1 0 0.25 0.25
6 1 0.125 0.375 0.375
10 1 0.5 0.25 0.25
14 1 0.625 0.375 0.375
17 1 0 0 0.5
21 1 0.125 0.125 0.625
25 1 0.5 0 0.5
29 1 0.625 0.125 0.625
20 1 0.25 0.25 0.5
24 1 0.375 0.375 0.625
28 1 0.75 0.25 0.5
32 1 0.875 0.375 0.625
19 1 0.25 0 0.75
23 1 0.375 0.125 0.875
27 1 0.75 0 0.75
31 1 0.875 0.125 0.875
18 1 0 0.25 0.75
22 1 0.125 0.375 0.875
26 1 0.5 0.25 0.75
30 1 0.625 0.375 0.875
33 1 0 0.5 0
37 1 0.125 0.625 0.125
41 1 0.5 0.5 0
45 1 0.625 0.625 0.125
36 1 0.25 0.75 0
40 1 0.375 0.875 0.125
44 1 0.75 0.75 0
48 1 0.875 0.875 0.125
35 1 0.25 0.5 0.25
39 1 0.375 0.625 0.375
43 1 0.75 0.5 0.25
47 1 0.875 0.625 0.375
34 1 0 0.75 0.25
38 1 0.125 0.875 0.375
42 1 0.5 0.75 0.25
46 1 0.625 0.875 0.375
49 1 0 0.5 0.5
53 1 0.125 0.625 0.625
61 1 0.625 0.625 0.625
52 1 0.25 0.75 0.5
56 1 0.375 0.875 0.625
57 1 0.875 0.875 0.625
60 1 0.75 0.75 0.5
51 1 0.25 0.5 0.75
55 1 0.375 0.625 0.875
59 1 0.75 0.5 0.75
63 1 0.875 0.625 0.875
50 1 0 0.75 0.75
54 1 0.125 0.875 0.875
58 1 0.5 0.75 0.75
62 1 0.625 0.875 0.875
ITEM: TIMESTEP
100
ITEM: NUMBER OF ATOMS
63
ITEM: BOX BOUNDS pp pp pp
0.0000000000000000e+00 1.0859999999999999e+01
0.0000000000000000e+00 1.0859999999999999e+01
0.0000000000000000e+00 1.0859999999999999e+01
ITEM: ATOMS id type xs ys zs
1 1 0 0 0
5 1 0.125 0.125 0.125
9 1 0.5 0 0
13 1 0.625 0.125 0.125
4 1 0.25 0.25 0
8 1 0.376418 0.375541 0.118553
12 1 0.75 0.25 0
16 1 0.875 0.375 0.125
3 1 0.25 0 0.25
7 1 0.371697 0.120816 0.385423
11 1 0.75 0 0.25
15 1 0.875 0.125 0.375
2 1 0 0.25 0.25
6 1 0.120914 0.371059 0.368304
10 1 0.489213 0.251222 0.253389
14 1 0.628949 0.385103 0.375015
17 1 0 0 0.5
21 1 0.125 0.125 0.625
25 1 0.49245 -0.000545229 0.503365
29 1 0.625111 0.12733 0.62747
20 1 0.240242 0.256952 0.505962
24 1 0.384756 0.362901 0.623394
28 1 0.753002 0.246062 0.472618
32 1 0.870532 0.361755 0.629834
19 1 0.25 0 0.75
23 1 0.375 0.125 0.875
27 1 0.75 0 0.75
31 1 0.875 0.125 0.875
18 1 0 0.25 0.75
22 1 0.125 0.375 0.875
26 1 0.51016 0.249596 0.753697
30 1 0.622404 0.376669 0.883775
33 1 0 0.5 0
37 1 0.125 0.625 0.125
41 1 0.509795 0.505493 -0.00101085
45 1 0.641068 0.614525 0.131685
36 1 0.25 0.75 0
40 1 0.375 0.875 0.125
44 1 0.75 0.75 0
48 1 0.875 0.875 0.125
35 1 0.253291 0.50512 0.242473
39 1 0.390682 0.629132 0.378852
43 1 0.745655 0.496963 0.248293
47 1 0.858997 0.626764 0.369845
34 1 0 0.75 0.25
38 1 0.125 0.875 0.375
42 1 0.507085 0.738182 0.261304
46 1 0.62463 0.878243 0.373287
49 1 -0.0107434 0.493464 0.499065
53 1 0.121444 0.627993 0.624379
61 1 0.621578 0.631698 0.621726
52 1 0.253239 0.743565 0.492178
56 1 0.379767 0.873826 0.6298
57 1 0.875 0.875 0.625
60 1 0.749864 0.778006 0.494303
51 1 0.256272 0.499905 0.761786
55 1 0.373304 0.616806 0.882935
59 1 0.749558 0.50615 0.736949
63 1 0.875 0.625 0.875
50 1 0 0.75 0.75
54 1 0.125 0.875 0.875
58 1 0.488063 0.751194 0.751289
62 1 0.625 0.875 0.875
ITEM: TIMESTEP
200
ITEM: NUMBER OF ATOMS
63
ITEM: BOX BOUNDS pp pp pp
0.0000000000000000e+00 1.0859999999999999e+01
0.0000000000000000e+00 1.0859999999999999e+01
0.0000000000000000e+00 1.0859999999999999e+01
ITEM: ATOMS id type xs ys zs
1 1 0 0 0
5 1 0.125 0.125 0.125
9 1 0.5 0 0
13 1 0.625 0.125 0.125
4 1 0.25 0.25 0
8 1 0.377752 0.377726 0.113252
12 1 0.75 0.25 0
16 1 0.875 0.375 0.125
3 1 0.25 0 0.25
7 1 0.364894 0.120518 0.393073
11 1 0.75 0 0.25
15 1 0.875 0.125 0.375
2 1 0 0.25 0.25
6 1 0.118647 0.372327 0.363922
10 1 0.483012 0.252553 0.257551
14 1 0.627525 0.391138 0.373926
17 1 0 0 0.5
21 1 0.125 0.125 0.625
25 1 0.490589 -0.00114409 0.507593
29 1 0.627877 0.12853 0.625579
20 1 0.233771 0.26106 0.509629
24 1 0.391856 0.35515 0.624397
28 1 0.750199 0.246641 0.45836
32 1 0.86401 0.351066 0.62937
19 1 0.25 0 0.75
23 1 0.375 0.125 0.875
27 1 0.75 0 0.75
31 1 0.875 0.125 0.875
18 1 0 0.25 0.75
22 1 0.125 0.375 0.875
26 1 0.516464 0.248904 0.758444
30 1 0.625101 0.378695 0.886599
33 1 0 0.5 0
37 1 0.125 0.625 0.125
41 1 0.517135 0.508852 0.00244168
45 1 0.647872 0.612839 0.13295
36 1 0.25 0.75 0
40 1 0.375 0.875 0.125
44 1 0.75 0.75 0
48 1 0.875 0.875 0.125
35 1 0.258064 0.508352 0.239528
39 1 0.399125 0.625332 0.384324
43 1 0.748644 0.49035 0.248734
47 1 0.847638 0.630061 0.368042
34 1 0 0.75 0.25
38 1 0.125 0.875 0.375
42 1 0.517917 0.733239 0.263322
46 1 0.619399 0.885769 0.37022
49 1 -0.0205513 0.488891 0.497761
53 1 0.119982 0.626664 0.623276
61 1 0.619293 0.641871 0.616816
52 1 0.256003 0.740743 0.488566
56 1 0.377155 0.873149 0.631037
57 1 0.875 0.875 0.625
60 1 0.749192 0.793801 0.490894
51 1 0.260077 0.496485 0.765419
55 1 0.373623 0.614533 0.890366
59 1 0.748353 0.509733 0.728895
63 1 0.875 0.625 0.875
50 1 0 0.75 0.75
54 1 0.125 0.875 0.875
58 1 0.482391 0.748865 0.75568
62 1 0.625 0.875 0.875
ITEM: TIMESTEP
300
ITEM: NUMBER OF ATOMS
63
ITEM: BOX BOUNDS pp pp pp
0.0000000000000000e+00 1.0859999999999999e+01
0.0000000000000000e+00 1.0859999999999999e+01
0.0000000000000000e+00 1.0859999999999999e+01
ITEM: ATOMS id type xs ys zs
1 1 0 0 0
5 1 0.125 0.125 0.125
9 1 0.5 0 0
13 1 0.625 0.125 0.125
4 1 0.25 0.25 0
8 1 0.379324 0.381205 0.110674
12 1 0.75 0.25 0
16 1 0.875 0.375 0.125
3 1 0.25 0 0.25
7 1 0.355879 0.124239 0.397299
11 1 0.75 0 0.25
15 1 0.875 0.125 0.375
2 1 0 0.25 0.25
6 1 0.118907 0.37971 0.363279
10 1 0.481864 0.253959 0.261754
14 1 0.617795 0.392276 0.372916
17 1 0 0 0.5
21 1 0.125 0.125 0.625
25 1 0.493714 -0.000294015 0.511924
29 1 0.632663 0.128812 0.619123
20 1 0.231615 0.263585 0.510626
24 1 0.395294 0.352533 0.6276
28 1 0.739843 0.252347 0.460954
32 1 0.854887 0.34444 0.623106
19 1 0.25 0 0.75
23 1 0.375 0.125 0.875
27 1 0.75 0 0.75
31 1 0.875 0.125 0.875
18 1 0 0.25 0.75
22 1 0.125 0.375 0.875
26 1 0.518686 0.246981 0.764022
30 1 0.63365 0.381719 0.882358
33 1 0 0.5 0
37 1 0.125 0.625 0.125
41 1 0.520869 0.50932 0.00933944
45 1 0.646662 0.620285 0.129967
36 1 0.25 0.75 0
40 1 0.375 0.875 0.125
44 1 0.75 0.75 0
48 1 0.875 0.875 0.125
35 1 0.26393 0.508878 0.242115
39 1 0.400928 0.614119 0.389935
43 1 0.758197 0.482196 0.250036
47 1 0.842585 0.635772 0.370086
34 1 0 0.75 0.25
38 1 0.125 0.875 0.375
42 1 0.527895 0.735969 0.255694
46 1 0.6092 0.896692 0.365723
49 1 -0.0287193 0.487193 0.49593
53 1 0.120885 0.620323 0.62163
61 1 0.618619 0.654809 0.611028
52 1 0.257047 0.741783 0.490212
56 1 0.367882 0.871713 0.628996
57 1 0.875 0.875 0.625
60 1 0.746936 0.795589 0.488678
51 1 0.261547 0.490101 0.759649
55 1 0.375787 0.61733 0.89591
59 1 0.746791 0.51081 0.726019
63 1 0.875 0.625 0.875
50 1 0 0.75 0.75
54 1 0.125 0.875 0.875
58 1 0.483805 0.744744 0.762363
62 1 0.625 0.875 0.875
ITEM: TIMESTEP
400
ITEM: NUMBER OF ATOMS
63
ITEM: BOX BOUNDS pp pp pp
0.0000000000000000e+00 1.0859999999999999e+01
0.0000000000000000e+00 1.0859999999999999e+01
0.0000000000000000e+00 1.0859999999999999e+01
ITEM: ATOMS id type xs ys zs
1 1 0 0 0
5 1 0.125 0.125 0.125
9 1 0.5 0 0
13 1 0.625 0.125 0.125
4 1 0.25 0.25 0
8 1 0.380995 0.383832 0.11236
12 1 0.75 0.25 0
16 1 0.875 0.375 0.125
3 1 0.25 0 0.25
7 1 0.349178 0.129178 0.398471
11 1 0.75 0 0.25
15 1 0.875 0.125 0.375
2 1 0 0.25 0.25
6 1 0.120717 0.390355 0.366144
10 1 0.483794 0.254902 0.264282
14 1 0.601879 0.39163 0.371106
17 1 0 0 0.5
21 1 0.125 0.125 0.625
25 1 0.496113 0.00343346 0.515744
29 1 0.636265 0.129015 0.612447
20 1 0.233117 0.266591 0.509968
24 1 0.394927 0.353797 0.631887
28 1 0.728045 0.25686 0.473214
32 1 0.846123 0.343187 0.615408
19 1 0.25 0 0.75
23 1 0.375 0.125 0.875
27 1 0.75 0 0.75
31 1 0.875 0.125 0.875
18 1 0 0.25 0.75
22 1 0.125 0.375 0.875
26 1 0.519341 0.243321 0.768287
30 1 0.644064 0.387129 0.874293
33 1 0 0.5 0
37 1 0.125 0.625 0.125
41 1 0.521454 0.505925 0.0140214
45 1 0.645329 0.628496 0.127776
36 1 0.25 0.75 0
40 1 0.375 0.875 0.125
44 1 0.75 0.75 0
48 1 0.875 0.875 0.125
35 1 0.268947 0.507401 0.248484
39 1 0.400758 0.602914 0.39176
43 1 0.764945 0.47961 0.252821
47 1 0.84402 0.642048 0.373472
34 1 0 0.75 0.25
38 1 0.125 0.875 0.375
42 1 0.528319 0.742549 0.247137
46 1 0.59881 0.907014 0.361167
49 1 -0.0348281 0.488879 0.493708
53 1 0.122977 0.61103 0.619873
61 1 0.619513 0.666893 0.60649
52 1 0.255736 0.743308 0.495175
56 1 0.359262 0.868129 0.626562
57 1 0.875 0.875 0.625
60 1 0.740848 0.788956 0.485463
51 1 0.262597 0.484467 0.748869
55 1 0.378281 0.619734 0.897353
59 1 0.745199 0.511072 0.726242
63 1 0.875 0.625 0.875
50 1 0 0.75 0.75
54 1 0.125 0.875 0.875
58 1 0.489584 0.743364 0.767067
62 1 0.625 0.875 0.875
ITEM: TIMESTEP
500
ITEM: NUMBER OF ATOMS
63
ITEM: BOX BOUNDS pp pp pp
0.0000000000000000e+00 1.0859999999999999e+01
0.0000000000000000e+00 1.0859999999999999e+01
0.0000000000000000e+00 1.0859999999999999e+01
ITEM: ATOMS id type xs ys zs
1 1 0 0 0
5 1 0.125 0.125 0.125
9 1 0.5 0 0
13 1 0.625 0.125 0.125
4 1 0.25 0.25 0
8 1 0.381626 0.382886 0.118698
12 1 0.75 0.25 0
16 1 0.875 0.375 0.125
3 1 0.25 0 0.25
7 1 0.348034 0.132562 0.396234
11 1 0.75 0 0.25
15 1 0.875 0.125 0.375
2 1 0 0.25 0.25
6 1 0.122132 0.400267 0.371396
10 1 0.485645 0.252793 0.262733
14 1 0.586364 0.392848 0.369381
17 1 0 0 0.5
21 1 0.125 0.125 0.625
25 1 0.493169 0.00913044 0.518989
29 1 0.636216 0.128113 0.611778
20 1 0.236206 0.270994 0.509445
24 1 0.392372 0.356578 0.635943
28 1 0.717229 0.2575 0.483303
32 1 0.84279 0.349301 0.612262
19 1 0.25 0 0.75
23 1 0.375 0.125 0.875
27 1 0.75 0 0.75
31 1 0.875 0.125 0.875
18 1 0 0.25 0.75
22 1 0.125 0.375 0.875
26 1 0.521339 0.239608 0.769379
30 1 0.651256 0.392712 0.866847
33 1 0 0.5 0
37 1 0.125 0.625 0.125
41 1 0.521667 0.500845 0.0131057
45 1 0.64599 0.631274 0.128081
36 1 0.25 0.75 0
40 1 0.375 0.875 0.125
44 1 0.75 0.75 0
48 1 0.875 0.875 0.125
35 1 0.270782 0.50523 0.255185
39 1 0.400797 0.597102 0.390382
43 1 0.763163 0.485127 0.25972
47 1 0.851769 0.645745 0.374692
34 1 0 0.75 0.25
38 1 0.125 0.875 0.375
42 1 0.517174 0.750602 0.243464
46 1 0.591028 0.913827 0.356725
49 1 -0.0383489 0.493963 0.491931
53 1 0.124582 0.601583 0.618208
61 1 0.619984 0.673846 0.606225
52 1 0.251479 0.741089 0.499394
56 1 0.357671 0.86447 0.626829
57 1 0.875 0.875 0.625
60 1 0.73264 0.78197 0.481138
51 1 0.262895 0.48223 0.738504
55 1 0.380425 0.618385 0.894205
59 1 0.744381 0.513388 0.726525
63 1 0.875 0.625 0.875
50 1 0 0.75 0.75
54 1 0.125 0.875 0.875
58 1 0.496629 0.745856 0.766961
62 1 0.625 0.875 0.875
ITEM: TIMESTEP
600
ITEM: NUMBER OF ATOMS
63
ITEM: BOX BOUNDS pp pp pp
0.0000000000000000e+00 1.0859999999999999e+01
0.0000000000000000e+00 1.0859999999999999e+01
0.0000000000000000e+00 1.0859999999999999e+01
ITEM: ATOMS id type xs ys zs
1 1 0 0 0
5 1 0.125 0.125 0.125
9 1 0.5 0 0
13 1 0.625 0.125 0.125
4 1 0.25 0.25 0
8 1 0.380896 0.377775 0.127572
12 1 0.75 0.25 0
16 1 0.875 0.375 0.125
3 1 0.25 0 0.25
7 1 0.352757 0.133766 0.390762
11 1 0.75 0 0.25
15 1 0.875 0.125 0.375
2 1 0 0.25 0.25
6 1 0.121351 0.40621 0.377961
10 1 0.48548 0.244853 0.256002
14 1 0.57423 0.400572 0.370373
17 1 0 0 0.5
21 1 0.125 0.125 0.625
25 1 0.483683 0.014133 0.520252
29 1 0.631339 0.123908 0.620971
20 1 0.239264 0.275583 0.509769
24 1 0.391046 0.35789 0.637914
28 1 0.708919 0.257344 0.484413
32 1 0.846442 0.362124 0.614469
19 1 0.25 0 0.75
23 1 0.375 0.125 0.875
27 1 0.75 0 0.75
31 1 0.875 0.125 0.875
18 1 0 0.25 0.75
22 1 0.125 0.375 0.875
26 1 0.525214 0.238088 0.767216
30 1 0.652359 0.394079 0.863683
33 1 0 0.5 0
37 1 0.125 0.625 0.125
41 1 0.522902 0.496671 0.0075149
45 1 0.64484 0.628726 0.13243
36 1 0.25 0.75 0
40 1 0.375 0.875 0.125
44 1 0.75 0.75 0
48 1 0.875 0.875 0.125
35 1 0.267779 0.503187 0.258466
39 1 0.404791 0.597299 0.387854
43 1 0.7538 0.495415 0.268224
47 1 0.863969 0.646553 0.373019
34 1 0 0.75 0.25
38 1 0.125 0.875 0.375
42 1 0.498236 0.755755 0.244526
46 1 0.586324 0.916928 0.353582
49 1 -0.0384158 0.50134 0.491884
53 1 0.123768 0.5947 0.616202
61 1 0.618143 0.672172 0.612398
52 1 0.245476 0.734451 0.500711
56 1 0.364198 0.862427 0.630866
57 1 0.875 0.875 0.625
60 1 0.726219 0.779933 0.474627
51 1 0.260916 0.484431 0.734274
55 1 0.381922 0.613815 0.886647
59 1 0.745493 0.520608 0.724186
63 1 0.875 0.625 0.875
50 1 0 0.75 0.75
54 1 0.125 0.875 0.875
58 1 0.501338 0.750686 0.762661
62 1 0.625 0.875 0.875
ITEM: TIMESTEP
700
ITEM: NUMBER OF ATOMS
63
ITEM: BOX BOUNDS pp pp pp
0.0000000000000000e+00 1.0859999999999999e+01
0.0000000000000000e+00 1.0859999999999999e+01
0.0000000000000000e+00 1.0859999999999999e+01
ITEM: ATOMS id type xs ys zs
1 1 0 0 0
5 1 0.125 0.125 0.125
9 1 0.5 0 0
13 1 0.625 0.125 0.125
4 1 0.25 0.25 0
8 1 0.37913 0.370919 0.134375
12 1 0.75 0.25 0
16 1 0.875 0.375 0.125
3 1 0.25 0 0.25
7 1 0.360251 0.133903 0.383814
11 1 0.75 0 0.25
15 1 0.875 0.125 0.375
2 1 0 0.25 0.25
6 1 0.117939 0.406368 0.38438
10 1 0.486004 0.234134 0.247597
14 1 0.560763 0.416471 0.373218
17 1 0 0 0.5
21 1 0.125 0.125 0.625
25 1 0.470835 0.0160333 0.518932
29 1 0.623547 0.118433 0.634224
20 1 0.241716 0.277622 0.509906
24 1 0.3925 0.357289 0.637721
28 1 0.705383 0.25807 0.481065
32 1 0.853296 0.3765 0.617824
19 1 0.25 0 0.75
23 1 0.375 0.125 0.875
27 1 0.75 0 0.75
31 1 0.875 0.125 0.875
18 1 0 0.25 0.75
22 1 0.125 0.375 0.875
26 1 0.527966 0.240138 0.764192
30 1 0.648911 0.390609 0.863989
33 1 0 0.5 0
37 1 0.125 0.625 0.125
41 1 0.523306 0.493791 0.00129173
45 1 0.638191 0.624751 0.138963
36 1 0.25 0.75 0
40 1 0.375 0.875 0.125
44 1 0.75 0.75 0
48 1 0.875 0.875 0.125
35 1 0.26096 0.502705 0.257783
39 1 0.414944 0.597413 0.384869
43 1 0.742178 0.505424 0.274743
47 1 0.874028 0.646878 0.371228
34 1 0 0.75 0.25
38 1 0.125 0.875 0.375
42 1 0.479711 0.755087 0.249333
46 1 0.583545 0.916935 0.353545
49 1 -0.0341376 0.50883 0.494637
53 1 0.119221 0.592917 0.614274
61 1 0.617054 0.662774 0.620173
52 1 0.241658 0.726337 0.500074
56 1 0.373864 0.861673 0.635601
57 1 0.875 0.875 0.625
60 1 0.722627 0.781348 0.467481
51 1 0.257473 0.489062 0.738567
55 1 0.38239 0.609085 0.875756
59 1 0.748447 0.531456 0.721135
63 1 0.875 0.625 0.875
50 1 0 0.75 0.75
54 1 0.125 0.875 0.875
58 1 0.5008 0.756132 0.758229
62 1 0.625 0.875 0.875
ITEM: TIMESTEP
800
ITEM: NUMBER OF ATOMS
63
ITEM: BOX BOUNDS pp pp pp
0.0000000000000000e+00 1.0859999999999999e+01
0.0000000000000000e+00 1.0859999999999999e+01
0.0000000000000000e+00 1.0859999999999999e+01
ITEM: ATOMS id type xs ys zs
1 1 0 0 0
5 1 0.125 0.125 0.125
9 1 0.5 0 0
13 1 0.625 0.125 0.125
4 1 0.25 0.25 0
8 1 0.376342 0.365581 0.135229
12 1 0.75 0.25 0
16 1 0.875 0.375 0.125
3 1 0.25 0 0.25
7 1 0.365048 0.133891 0.377314
11 1 0.75 0 0.25
15 1 0.875 0.125 0.375
2 1 0 0.25 0.25
6 1 0.113294 0.400361 0.388332
10 1 0.489391 0.227444 0.242275
14 1 0.549982 0.429362 0.375551
28 1 0.705779 0.259725 0.478512
17 1 0 0 0.5
21 1 0.125 0.125 0.625
25 1 0.461485 0.014306 0.517073
29 1 0.615639 0.113887 0.641521
20 1 0.24358 0.275176 0.508898
24 1 0.394717 0.357444 0.637039
51 1 0.254155 0.492066 0.747678
32 1 0.859685 0.387167 0.619559
19 1 0.25 0 0.75
23 1 0.375 0.125 0.875
27 1 0.75 0 0.75
31 1 0.875 0.125 0.875
18 1 0 0.25 0.75
22 1 0.125 0.375 0.875
26 1 0.524912 0.246343 0.763516
30 1 0.645314 0.385341 0.864773
41 1 0.52015 0.492156 0.997694
33 1 0 0.5 0
37 1 0.125 0.625 0.125
46 1 0.580888 0.914297 0.357213
45 1 0.624678 0.623577 0.142866
36 1 0.25 0.75 0
40 1 0.375 0.875 0.125
44 1 0.75 0.75 0
48 1 0.875 0.875 0.125
35 1 0.253326 0.504449 0.255914
39 1 0.42152 0.598178 0.382734
43 1 0.733842 0.511917 0.27916
47 1 0.876202 0.647602 0.371917
34 1 0 0.75 0.25
38 1 0.125 0.875 0.375
42 1 0.468359 0.749645 0.25691
49 1 0.973182 0.514204 0.499105
52 1 0.243873 0.719231 0.497703
60 1 0.721469 0.782251 0.463501
58 1 0.497405 0.758587 0.757428
53 1 0.113496 0.597741 0.615705
61 1 0.618136 0.65128 0.622967
54 1 0.125 0.875 0.875
56 1 0.377591 0.862901 0.635941
57 1 0.875 0.875 0.625
50 1 0 0.75 0.75
62 1 0.625 0.875 0.875
55 1 0.382268 0.607864 0.865231
59 1 0.753271 0.539842 0.722318
63 1 0.875 0.625 0.875
ITEM: TIMESTEP
900
ITEM: NUMBER OF ATOMS
63
ITEM: BOX BOUNDS pp pp pp
0.0000000000000000e+00 1.0859999999999999e+01
0.0000000000000000e+00 1.0859999999999999e+01
0.0000000000000000e+00 1.0859999999999999e+01
ITEM: ATOMS id type xs ys zs
1 1 0 0 0
5 1 0.125 0.125 0.125
9 1 0.5 0 0
13 1 0.625 0.125 0.125
4 1 0.25 0.25 0
8 1 0.373197 0.364227 0.130157
12 1 0.75 0.25 0
16 1 0.875 0.375 0.125
3 1 0.25 0 0.25
7 1 0.364189 0.133652 0.372626
11 1 0.75 0 0.25
15 1 0.875 0.125 0.375
2 1 0 0.25 0.25
6 1 0.109761 0.389519 0.387934
10 1 0.495264 0.232102 0.243891
14 1 0.547742 0.428111 0.376423
28 1 0.707515 0.265441 0.478513
17 1 0 0 0.5
21 1 0.125 0.125 0.625
25 1 0.459263 0.0106805 0.515578
29 1 0.60848 0.111507 0.639043
20 1 0.245396 0.268092 0.506946
24 1 0.394386 0.361135 0.63628
51 1 0.250395 0.491243 0.754337
32 1 0.862359 0.390205 0.618637
19 1 0.25 0 0.75
23 1 0.375 0.125 0.875
27 1 0.75 0 0.75
31 1 0.875 0.125 0.875
18 1 0 0.25 0.75
22 1 0.125 0.375 0.875
26 1 0.515115 0.253957 0.764982
30 1 0.644619 0.381673 0.865978
41 1 0.51192 0.491612 0.99694
33 1 0 0.5 0
37 1 0.125 0.625 0.125
46 1 0.577998 0.909523 0.363319
45 1 0.606845 0.626217 0.142303
36 1 0.25 0.75 0
40 1 0.375 0.875 0.125
44 1 0.75 0.75 0
48 1 0.875 0.875 0.125
35 1 0.246843 0.506104 0.255201
39 1 0.416931 0.59738 0.385444
43 1 0.732116 0.511902 0.279019
47 1 0.870219 0.647632 0.375895
34 1 0 0.75 0.25
38 1 0.125 0.875 0.375
42 1 0.467086 0.746048 0.261765
49 1 0.980066 0.516151 0.501484
52 1 0.252068 0.715322 0.494447
60 1 0.72287 0.780529 0.465234
58 1 0.495964 0.755218 0.758903
53 1 0.112263 0.609975 0.624242
61 1 0.618135 0.643915 0.618553
54 1 0.125 0.875 0.875
56 1 0.370476 0.865006 0.630379
57 1 0.875 0.875 0.625
50 1 0 0.75 0.75
62 1 0.625 0.875 0.875
55 1 0.382817 0.611851 0.860702
59 1 0.76008 0.54027 0.729827
63 1 0.875 0.625 0.875
ITEM: TIMESTEP
1000
ITEM: NUMBER OF ATOMS
63
ITEM: BOX BOUNDS pp pp pp
0.0000000000000000e+00 1.0859999999999999e+01
0.0000000000000000e+00 1.0859999999999999e+01
0.0000000000000000e+00 1.0859999999999999e+01
ITEM: ATOMS id type xs ys zs
1 1 0 0 0
5 1 0.125 0.125 0.125
9 1 0.5 0 0
13 1 0.625 0.125 0.125
4 1 0.25 0.25 0
8 1 0.371079 0.367596 0.122816
12 1 0.75 0.25 0
16 1 0.875 0.375 0.125
3 1 0.25 0 0.25
7 1 0.360121 0.132907 0.36984
11 1 0.75 0 0.25
15 1 0.875 0.125 0.375
2 1 0 0.25 0.25
6 1 0.108873 0.377151 0.383363
10 1 0.500727 0.247234 0.250933
14 1 0.554561 0.415665 0.376711
28 1 0.710161 0.272753 0.482285
17 1 0 0 0.5
21 1 0.125 0.125 0.625
25 1 0.463044 0.00761883 0.513244
29 1 0.602906 0.114402 0.629988
20 1 0.247633 0.257594 0.504687
24 1 0.388817 0.369904 0.634057
51 1 0.246813 0.489192 0.754395
32 1 0.861969 0.385688 0.616396
19 1 0.25 0 0.75
23 1 0.375 0.125 0.875
27 1 0.75 0 0.75
31 1 0.875 0.125 0.875
18 1 0 0.25 0.75
22 1 0.125 0.375 0.875
26 1 0.502274 0.258321 0.765959
30 1 0.646268 0.381621 0.86869
41 1 0.499455 0.491958 0.997408
33 1 0 0.5 0
37 1 0.125 0.625 0.125
46 1 0.577282 0.903149 0.369475
45 1 0.591947 0.629436 0.138806
36 1 0.25 0.75 0
40 1 0.375 0.875 0.125
44 1 0.75 0.75 0
48 1 0.875 0.875 0.125
35 1 0.242883 0.504664 0.256468
39 1 0.402731 0.591993 0.391924
43 1 0.734581 0.506757 0.271447
47 1 0.860848 0.645941 0.38115
34 1 0 0.75 0.25
38 1 0.125 0.875 0.375
42 1 0.473044 0.747849 0.26227
49 1 0.986351 0.515133 0.501572
52 1 0.261438 0.716382 0.492497
60 1 0.725431 0.776811 0.473428
58 1 0.497028 0.749997 0.756373
53 1 0.117024 0.626148 0.636761
61 1 0.617848 0.640849 0.610436
54 1 0.125 0.875 0.875
56 1 0.356853 0.863939 0.623614
57 1 0.875 0.875 0.625
50 1 0 0.75 0.75
62 1 0.625 0.875 0.875
55 1 0.382136 0.618008 0.865264
59 1 0.763166 0.531781 0.738308
63 1 0.875 0.625 0.875
ITEM: TIMESTEP
1100
ITEM: NUMBER OF ATOMS
63
ITEM: BOX BOUNDS pp pp pp
0.0000000000000000e+00 1.0859999999999999e+01
0.0000000000000000e+00 1.0859999999999999e+01
0.0000000000000000e+00 1.0859999999999999e+01
ITEM: ATOMS id type xs ys zs
1 1 0 0 0
5 1 0.125 0.125 0.125
9 1 0.5 0 0
13 1 0.625 0.125 0.125
4 1 0.25 0.25 0
8 1 0.369917 0.374741 0.118304
12 1 0.75 0.25 0
16 1 0.875 0.375 0.125
3 1 0.25 0 0.25
7 1 0.358567 0.132143 0.368336
11 1 0.75 0 0.25
15 1 0.875 0.125 0.375
2 1 0 0.25 0.25
6 1 0.11169 0.367175 0.377759
10 1 0.502831 0.263348 0.257385
14 1 0.566916 0.403941 0.378344
28 1 0.715595 0.275829 0.488835
17 1 0 0 0.5
21 1 0.125 0.125 0.625
25 1 0.467678 0.00532276 0.509422
29 1 0.60098 0.123564 0.620359
20 1 0.249434 0.24691 0.502918
24 1 0.378 0.381633 0.629325
51 1 0.245524 0.491188 0.7501
32 1 0.862105 0.377078 0.614835
19 1 0.25 0 0.75
23 1 0.375 0.125 0.875
27 1 0.75 0 0.75
31 1 0.875 0.125 0.875
18 1 0 0.25 0.75
22 1 0.125 0.375 0.875
26 1 0.491465 0.259812 0.764577
30 1 0.645822 0.384212 0.87275
41 1 0.487006 0.49322 0.997092
33 1 0 0.5 0
37 1 0.125 0.625 0.125
46 1 0.582826 0.895574 0.373652
45 1 0.586337 0.63034 0.131723
36 1 0.25 0.75 0
40 1 0.375 0.875 0.125
44 1 0.75 0.75 0
48 1 0.875 0.875 0.125
35 1 0.241498 0.498932 0.258658
39 1 0.388067 0.581888 0.395953
43 1 0.737064 0.5007 0.258362
47 1 0.853284 0.640944 0.383744
34 1 0 0.75 0.25
38 1 0.125 0.875 0.375
42 1 0.478962 0.751571 0.263612
49 1 0.993286 0.513406 0.501937
52 1 0.265479 0.722928 0.49234
60 1 0.727605 0.773882 0.48755
58 1 0.499299 0.746425 0.747749
53 1 0.127031 0.637932 0.644577
61 1 0.619231 0.638904 0.603596
54 1 0.125 0.875 0.875
56 1 0.344592 0.860277 0.619282
57 1 0.875 0.875 0.625
50 1 0 0.75 0.75
62 1 0.625 0.875 0.875
55 1 0.37667 0.623244 0.876204
59 1 0.757904 0.516151 0.742412
63 1 0.875 0.625 0.875
ITEM: TIMESTEP
1200
ITEM: NUMBER OF ATOMS
63
ITEM: BOX BOUNDS pp pp pp
0.0000000000000000e+00 1.0859999999999999e+01
0.0000000000000000e+00 1.0859999999999999e+01
0.0000000000000000e+00 1.0859999999999999e+01
ITEM: ATOMS id type xs ys zs
1 1 0 0 0
5 1 0.125 0.125 0.125
9 1 0.5 0 0
13 1 0.625 0.125 0.125
4 1 0.25 0.25 0
8 1 0.367438 0.381434 0.11975
12 1 0.75 0.25 0
16 1 0.875 0.375 0.125
3 1 0.25 0 0.25
7 1 0.363406 0.131585 0.367361
11 1 0.75 0 0.25
15 1 0.875 0.125 0.375
2 1 0 0.25 0.25
6 1 0.118441 0.361855 0.375228
10 1 0.498133 0.268553 0.254626
14 1 0.581643 0.407259 0.386518
28 1 0.723461 0.271964 0.494758
17 1 0 0 0.5
21 1 0.125 0.125 0.625
25 1 0.469992 0.00342638 0.504504
29 1 0.60326 0.136598 0.614539
20 1 0.249246 0.240736 0.502383
24 1 0.365401 0.390439 0.621885
51 1 0.246147 0.498786 0.747943
32 1 0.865669 0.368711 0.615193
19 1 0.25 0 0.75
23 1 0.375 0.125 0.875
27 1 0.75 0 0.75
31 1 0.875 0.125 0.875
18 1 0 0.25 0.75
22 1 0.125 0.375 0.875
26 1 0.485677 0.262142 0.759196
30 1 0.638267 0.386309 0.878025
41 1 0.480294 0.496119 0.994938
33 1 0 0.5 0
37 1 0.125 0.625 0.125
46 1 0.596732 0.887662 0.3765
45 1 0.590572 0.629004 0.121828
36 1 0.25 0.75 0
40 1 0.375 0.875 0.125
44 1 0.75 0.75 0
48 1 0.875 0.875 0.125
35 1 0.241287 0.490157 0.259236
39 1 0.383081 0.566451 0.39557
43 1 0.737244 0.496325 0.24377
47 1 0.849817 0.632567 0.381744
34 1 0 0.75 0.25
38 1 0.125 0.875 0.375
42 1 0.481008 0.752473 0.266762
49 1 1.00044 0.511801 0.503055
52 1 0.260084 0.730881 0.490145
60 1 0.731193 0.77355 0.503929
58 1 0.500101 0.745012 0.7375
53 1 0.140936 0.642142 0.642919
61 1 0.621179 0.633459 0.601682
54 1 0.125 0.875 0.875
56 1 0.340629 0.859523 0.620486
57 1 0.875 0.875 0.625
50 1 0 0.75 0.75
62 1 0.625 0.875 0.875
55 1 0.367243 0.628146 0.884723
59 1 0.747675 0.498757 0.742331
63 1 0.875 0.625 0.875
ITEM: TIMESTEP
1300
ITEM: NUMBER OF ATOMS
63
ITEM: BOX BOUNDS pp pp pp
0.0000000000000000e+00 1.0859999999999999e+01
0.0000000000000000e+00 1.0859999999999999e+01
0.0000000000000000e+00 1.0859999999999999e+01
ITEM: ATOMS id type xs ys zs
1 1 0 0 0
5 1 0.125 0.125 0.125
9 1 0.5 0 0
13 1 0.625 0.125 0.125
4 1 0.25 0.25 0
8 1 0.363272 0.383625 0.125038
12 1 0.75 0.25 0
16 1 0.875 0.375 0.125
3 1 0.25 0 0.25
7 1 0.372546 0.130982 0.366382
11 1 0.75 0 0.25
15 1 0.875 0.125 0.375
2 1 0 0.25 0.25
6 1 0.12629 0.360837 0.377504
10 1 0.490353 0.266939 0.246861
14 1 0.594639 0.420593 0.396277
28 1 0.732112 0.26295 0.496853
17 1 0 0 0.5
21 1 0.125 0.125 0.625
25 1 0.47303 0.00204005 0.499559
29 1 0.607611 0.147644 0.614643
20 1 0.247712 0.240638 0.502526
24 1 0.355226 0.393606 0.612172
51 1 0.247694 0.508602 0.752168
32 1 0.873965 0.363999 0.618482
19 1 0.25 0 0.75
23 1 0.375 0.125 0.875
27 1 0.75 0 0.75
31 1 0.875 0.125 0.875
18 1 0 0.25 0.75
22 1 0.125 0.375 0.875
26 1 0.484284 0.266711 0.750299
30 1 0.622623 0.384751 0.883957
41 1 0.480007 0.500763 0.992256
33 1 0 0.5 0
37 1 0.125 0.625 0.125
46 1 0.615987 0.880655 0.380059
45 1 0.60156 0.627594 0.112759
36 1 0.25 0.75 0
40 1 0.375 0.875 0.125
44 1 0.75 0.75 0
48 1 0.875 0.875 0.125
35 1 0.240385 0.482184 0.256037
39 1 0.38997 0.552597 0.393009
43 1 0.734567 0.495148 0.231312
47 1 0.850367 0.623302 0.377492
34 1 0 0.75 0.25
38 1 0.125 0.875 0.375
42 1 0.479958 0.746426 0.270093
49 1 1.0072 0.509592 0.50393
52 1 0.249468 0.7359 0.482088
60 1 0.737509 0.773153 0.515828
58 1 0.497727 0.745843 0.730057
53 1 0.15115 0.64233 0.634488
61 1 0.622332 0.621809 0.605923
54 1 0.125 0.875 0.875
56 1 0.346881 0.862882 0.626028
57 1 0.875 0.875 0.625
50 1 0 0.75 0.75
62 1 0.625 0.875 0.875
55 1 0.35965 0.631769 0.883478
59 1 0.738661 0.485916 0.739061
63 1 0.875 0.625 0.875
ITEM: TIMESTEP
1400
ITEM: NUMBER OF ATOMS
63
ITEM: BOX BOUNDS pp pp pp
0.0000000000000000e+00 1.0859999999999999e+01
0.0000000000000000e+00 1.0859999999999999e+01
0.0000000000000000e+00 1.0859999999999999e+01
ITEM: ATOMS id type xs ys zs
1 1 0 0 0
5 1 0.125 0.125 0.125
9 1 0.5 0 0
13 1 0.625 0.125 0.125
4 1 0.25 0.25 0
8 1 0.36071 0.380888 0.126966
12 1 0.75 0.25 0
16 1 0.875 0.375 0.125
3 1 0.25 0 0.25
7 1 0.379856 0.130486 0.365873
11 1 0.75 0 0.25
15 1 0.875 0.125 0.375
2 1 0 0.25 0.25
6 1 0.130011 0.362806 0.382983
10 1 0.487727 0.264875 0.242432
14 1 0.605214 0.432121 0.400547
28 1 0.742226 0.254908 0.494145
17 1 0 0 0.5
21 1 0.125 0.125 0.625
25 1 0.481026 6.44649e-05 0.496129
29 1 0.611901 0.149911 0.6211
20 1 0.247409 0.242865 0.501445
24 1 0.349888 0.396963 0.599595
51 1 0.249307 0.514536 0.760259
32 1 0.884506 0.36391 0.622761
19 1 0.25 0 0.75
23 1 0.375 0.125 0.875
27 1 0.75 0 0.75
31 1 0.875 0.125 0.875
18 1 0 0.25 0.75
22 1 0.125 0.375 0.875
26 1 0.484592 0.272552 0.740252
30 1 0.60464 0.37865 0.88722
41 1 0.48156 0.506944 0.992372
33 1 0 0.5 0
37 1 0.125 0.625 0.125
46 1 0.634062 0.875115 0.383566
45 1 0.614895 0.627426 0.106947
36 1 0.25 0.75 0
40 1 0.375 0.875 0.125
44 1 0.75 0.75 0
48 1 0.875 0.875 0.125
35 1 0.238487 0.480436 0.250931
39 1 0.399906 0.545212 0.394556
43 1 0.729976 0.497024 0.224377
47 1 0.854305 0.615881 0.373467
34 1 0 0.75 0.25
38 1 0.125 0.875 0.375
42 1 0.479979 0.735461 0.272679
49 1 1.01311 0.506181 0.503691
52 1 0.245289 0.73778 0.469094
60 1 0.7435 0.765585 0.520771
58 1 0.494157 0.74762 0.728592
53 1 0.150035 0.639905 0.625084
61 1 0.622563 0.607031 0.61338
54 1 0.125 0.875 0.875
56 1 0.359272 0.866914 0.628144
57 1 0.875 0.875 0.625
50 1 0 0.75 0.75
62 1 0.625 0.875 0.875
55 1 0.360444 0.633422 0.872749
59 1 0.733179 0.478843 0.7355
63 1 0.875 0.625 0.875
ITEM: TIMESTEP
1500
ITEM: NUMBER OF ATOMS
63
ITEM: BOX BOUNDS pp pp pp
0.0000000000000000e+00 1.0859999999999999e+01
0.0000000000000000e+00 1.0859999999999999e+01
0.0000000000000000e+00 1.0859999999999999e+01
ITEM: ATOMS id type xs ys zs
1 1 0 0 0
5 1 0.125 0.125 0.125
9 1 0.5 0 0
13 1 0.625 0.125 0.125
4 1 0.25 0.25 0
8 1 0.361732 0.376056 0.121871
12 1 0.75 0.25 0
16 1 0.875 0.375 0.125
3 1 0.25 0 0.25
7 1 0.382037 0.129306 0.366896
11 1 0.75 0 0.25
15 1 0.875 0.125 0.375
2 1 0 0.25 0.25
6 1 0.127337 0.367384 0.387532
10 1 0.496827 0.267214 0.246957
14 1 0.612123 0.434718 0.39774
28 1 0.752069 0.252474 0.489839
17 1 0 0 0.5
21 1 0.125 0.125 0.625
25 1 0.495301 -0.00292323 0.495214
29 1 0.616519 0.143195 0.628712
20 1 0.249545 0.242251 0.49843
24 1 0.350153 0.407473 0.585054
51 1 0.247314 0.512299 0.763286
32 1 0.892442 0.368858 0.624187
19 1 0.25 0 0.75
23 1 0.375 0.125 0.875
27 1 0.75 0 0.75
31 1 0.875 0.125 0.875
18 1 0 0.25 0.75
22 1 0.125 0.375 0.875
26 1 0.483509 0.277622 0.730377
30 1 0.590546 0.369559 0.885949
41 1 0.481958 0.514427 0.996345
33 1 0 0.5 0
37 1 0.125 0.625 0.125
46 1 0.644745 0.870541 0.385037
45 1 0.624558 0.628963 0.10538
36 1 0.25 0.75 0
40 1 0.375 0.875 0.125
44 1 0.75 0.75 0
48 1 0.875 0.875 0.125
35 1 0.236716 0.486219 0.247194
39 1 0.404282 0.54276 0.403969
43 1 0.726573 0.499527 0.225416
47 1 0.861315 0.611636 0.37055
34 1 0 0.75 0.25
38 1 0.125 0.875 0.375
42 1 0.484396 0.724286 0.273167
49 1 1.01677 0.501984 0.502409
52 1 0.254778 0.733246 0.457321
60 1 0.748255 0.747367 0.519861
58 1 0.494123 0.747185 0.734332
53 1 0.139509 0.634384 0.617403
61 1 0.619863 0.594129 0.616898
54 1 0.125 0.875 0.875
56 1 0.371588 0.871684 0.621632
57 1 0.875 0.875 0.625
50 1 0 0.75 0.75
62 1 0.625 0.875 0.875
55 1 0.371163 0.637209 0.861324
59 1 0.733996 0.474873 0.739008
63 1 0.875 0.625 0.875
ITEM: TIMESTEP
1600
ITEM: NUMBER OF ATOMS
63
ITEM: BOX BOUNDS pp pp pp
0.0000000000000000e+00 1.0859999999999999e+01
0.0000000000000000e+00 1.0859999999999999e+01
0.0000000000000000e+00 1.0859999999999999e+01
ITEM: ATOMS id type xs ys zs
1 1 0 0 0
5 1 0.125 0.125 0.125
9 1 0.5 0 0
13 1 0.625 0.125 0.125
35 1 0.237868 0.49466 0.246088
4 1 0.25 0.25 0
8 1 0.367229 0.373153 0.115588
12 1 0.75 0.25 0
16 1 0.875 0.375 0.125
3 1 0.25 0 0.25
7 1 0.381821 0.126702 0.369382
20 1 0.253403 0.240007 0.495293
11 1 0.75 0 0.25
15 1 0.875 0.125 0.375
2 1 0 0.25 0.25
6 1 0.122433 0.37198 0.386453
10 1 0.512659 0.272947 0.256931
14 1 0.616013 0.428685 0.394262
28 1 0.757312 0.257376 0.488405
17 1 0 0 0.5
21 1 0.125 0.125 0.625
29 1 0.622684 0.131828 0.632677
49 1 0.0147446 0.498673 0.500566
24 1 0.353235 0.419867 0.574432
26 1 0.479268 0.27977 0.720222
59 1 0.741296 0.472112 0.751316
32 1 0.894306 0.376867 0.622082
19 1 0.25 0 0.75
23 1 0.375 0.125 0.875
27 1 0.75 0 0.75