ITEM: TIMESTEP
0
ITEM: NUMBER OF ATOMS
63
ITEM: BOX BOUNDS pp pp pp
0.0000000000000000e+00 1.0859999999999999e+01
0.0000000000000000e+00 1.0859999999999999e+01
0.0000000000000000e+00 1.0859999999999999e+01
ITEM: ATOMS id type xs ys zs
1 1 0 0 0
5 1 0.125 0.125 0.125
9 1 0.5 0 0
13 1 0.625 0.125 0.125
4 1 0.25 0.25 0
8 1 0.375 0.375 0.125
12 1 0.75 0.25 0
16 1 0.875 0.375 0.125
3 1 0.25 0 0.25
7 1 0.375 0.125 0.375
11 1 0.75 0 0.25
15 1 0.875 0.125 0.375
2 1 0 0.25 0.25
6 1 0.125 0.375 0.375
10 1 0.5 0.25 0.25
14 1 0.625 0.375 0.375
17 1 0 0 0.5
21 1 0.125 0.125 0.625
25 1 0.5 0 0.5
29 1 0.625 0.125 0.625
20 1 0.25 0.25 0.5
24 1 0.375 0.375 0.625
28 1 0.75 0.25 0.5
32 1 0.875 0.375 0.625
19 1 0.25 0 0.75
23 1 0.375 0.125 0.875
27 1 0.75 0 0.75
31 1 0.875 0.125 0.875
18 1 0 0.25 0.75
22 1 0.125 0.375 0.875
26 1 0.5 0.25 0.75
30 1 0.625 0.375 0.875
33 1 0 0.5 0
37 1 0.125 0.625 0.125
41 1 0.5 0.5 0
45 1 0.625 0.625 0.125
36 1 0.25 0.75 0
40 1 0.375 0.875 0.125
44 1 0.75 0.75 0
48 1 0.875 0.875 0.125
35 1 0.25 0.5 0.25
39 1 0.375 0.625 0.375
43 1 0.75 0.5 0.25
47 1 0.875 0.625 0.375
34 1 0 0.75 0.25
38 1 0.125 0.875 0.375
42 1 0.5 0.75 0.25
46 1 0.625 0.875 0.375
49 1 0 0.5 0.5
53 1 0.125 0.625 0.625
61 1 0.625 0.625 0.625
52 1 0.25 0.75 0.5
56 1 0.375 0.875 0.625
57 1 0.875 0.875 0.625
60 1 0.75 0.75 0.5
51 1 0.25 0.5 0.75
55 1 0.375 0.625 0.875
59 1 0.75 0.5 0.75
63 1 0.875 0.625 0.875
50 1 0 0.75 0.75
54 1 0.125 0.875 0.875
58 1 0.5 0.75 0.75
62 1 0.625 0.875 0.875
ITEM: TIMESTEP
100
ITEM: NUMBER OF ATOMS
63
ITEM: BOX BOUNDS pp pp pp
0.0000000000000000e+00 1.0859999999999999e+01
0.0000000000000000e+00 1.0859999999999999e+01
0.0000000000000000e+00 1.0859999999999999e+01
ITEM: ATOMS id type xs ys zs
1 1 0 0 0
5 1 0.125 0.125 0.125
9 1 0.5 0 0
13 1 0.625 0.125 0.125
4 1 0.25 0.25 0
8 1 0.375906 0.375349 0.120925
12 1 0.75 0.25 0
16 1 0.875 0.375 0.125
3 1 0.25 0 0.25
7 1 0.372913 0.122358 0.381594
11 1 0.75 0 0.25
15 1 0.875 0.125 0.375
2 1 0 0.25 0.25
6 1 0.122415 0.372516 0.370763
10 1 0.493211 0.250837 0.252203
14 1 0.627591 0.381268 0.374867
17 1 0 0 0.5
21 1 0.125 0.125 0.625
25 1 0.495217 -0.000341914 0.502129
29 1 0.62507 0.126491 0.626509
20 1 0.243917 0.254415 0.503754
24 1 0.381023 0.367292 0.624131
28 1 0.751884 0.247498 0.482754
32 1 0.872201 0.366649 0.627999
19 1 0.25 0 0.75
23 1 0.375 0.125 0.875
27 1 0.75 0 0.75
31 1 0.875 0.125 0.875
18 1 0 0.25 0.75
22 1 0.125 0.375 0.875
26 1 0.50642 0.249789 0.752279
30 1 0.623368 0.376107 0.880515
33 1 0 0.5 0
37 1 0.125 0.625 0.125
41 1 0.50618 0.503451 -0.000644074
45 1 0.635209 0.618318 0.129289
36 1 0.25 0.75 0
40 1 0.375 0.875 0.125
44 1 0.75 0.75 0
48 1 0.875 0.875 0.125
35 1 0.252141 0.503254 0.245318
39 1 0.384832 0.627735 0.377266
43 1 0.747132 0.498134 0.248935
47 1 0.864901 0.626128 0.371735
34 1 0 0.75 0.25
38 1 0.125 0.875 0.375
42 1 0.504404 0.742455 0.257216
46 1 0.624811 0.877036 0.373958
49 1 -0.00678558 0.495881 0.499412
53 1 0.122767 0.626866 0.624619
61 1 0.622949 0.629378 0.623008
52 1 0.252131 0.745892 0.495069
56 1 0.378025 0.874224 0.628033
57 1 0.875 0.875 0.625
60 1 0.749808 0.767603 0.496426
51 1 0.254041 0.499947 0.757364
55 1 0.373937 0.619816 0.879997
59 1 0.749624 0.50385 0.741754
63 1 0.875 0.625 0.875
50 1 0 0.75 0.75
54 1 0.125 0.875 0.875
58 1 0.492448 0.750715 0.750742
62 1 0.625 0.875 0.875
ITEM: TIMESTEP
200
ITEM: NUMBER OF ATOMS
63
ITEM: BOX BOUNDS pp pp pp
0.0000000000000000e+00 1.0859999999999999e+01
0.0000000000000000e+00 1.0859999999999999e+01
0.0000000000000000e+00 1.0859999999999999e+01
ITEM: ATOMS id type xs ys zs
1 1 0 0 0
5 1 0.125 0.125 0.125
9 1 0.5 0 0
13 1 0.625 0.125 0.125
4 1 0.25 0.25 0
8 1 0.37678 0.376782 0.117666
12 1 0.75 0.25 0
16 1 0.875 0.375 0.125
3 1 0.25 0 0.25
7 1 0.368635 0.122255 0.386363
11 1 0.75 0 0.25
15 1 0.875 0.125 0.375
2 1 0 0.25 0.25
6 1 0.120988 0.373461 0.368007
10 1 0.489634 0.251846 0.254959
14 1 0.627032 0.384585 0.373269
17 1 0 0 0.5
21 1 0.125 0.125 0.625
25 1 0.494001 -0.000709289 0.504828
29 1 0.626829 0.127326 0.625237
20 1 0.240253 0.256525 0.505848
24 1 0.384851 0.362699 0.625454
28 1 0.750849 0.247146 0.474054
32 1 0.868309 0.360152 0.62742
19 1 0.25 0 0.75
23 1 0.375 0.125 0.875
27 1 0.75 0 0.75
31 1 0.875 0.125 0.875
18 1 0 0.25 0.75
22 1 0.125 0.375 0.875
26 1 0.510296 0.249381 0.755029
30 1 0.625176 0.377825 0.882045
33 1 0 0.5 0
37 1 0.125 0.625 0.125
41 1 0.510667 0.505134 0.00149114
45 1 0.639687 0.616679 0.130575
36 1 0.25 0.75 0
40 1 0.375 0.875 0.125
44 1 0.75 0.75 0
48 1 0.875 0.875 0.125
35 1 0.255234 0.5053 0.243738
39 1 0.390221 0.625978 0.379632
43 1 0.748269 0.494682 0.248993
47 1 0.858124 0.628135 0.370649
34 1 0 0.75 0.25
38 1 0.125 0.875 0.375
42 1 0.510567 0.738847 0.259098
46 1 0.622119 0.881802 0.372577
49 1 -0.0128862 0.493179 0.498566
53 1 0.121987 0.625745 0.623987
61 1 0.621879 0.636231 0.619985
52 1 0.254235 0.74418 0.493046
56 1 0.376352 0.87351 0.628822
57 1 0.875 0.875 0.625
60 1 0.748716 0.776758 0.494407
51 1 0.256724 0.497972 0.75935
55 1 0.37418 0.618447 0.884384
59 1 0.748387 0.505762 0.737184
63 1 0.875 0.625 0.875
50 1 0 0.75 0.75
54 1 0.125 0.875 0.875
58 1 0.488955 0.749259 0.753197
62 1 0.625 0.875 0.875
ITEM: TIMESTEP
300
ITEM: NUMBER OF ATOMS
63
ITEM: BOX BOUNDS pp pp pp
0.0000000000000000e+00 1.0859999999999999e+01
0.0000000000000000e+00 1.0859999999999999e+01
0.0000000000000000e+00 1.0859999999999999e+01
ITEM: ATOMS id type xs ys zs
1 1 0 0 0
5 1 0.125 0.125 0.125
9 1 0.5 0 0
13 1 0.625 0.125 0.125
4 1 0.25 0.25 0
8 1 0.377648 0.378973 0.116519
12 1 0.75 0.25 0
16 1 0.875 0.375 0.125
3 1 0.25 0 0.25
7 1 0.363157 0.124866 0.388565
11 1 0.75 0 0.25
15 1 0.875 0.125 0.375
2 1 0 0.25 0.25
6 1 0.121211 0.378397 0.367758
10 1 0.489746 0.252742 0.257489
14 1 0.621923 0.384023 0.370927
17 1 0 0 0.5
21 1 0.125 0.125 0.625
25 1 0.495875 -0.000153597 0.507611
29 1 0.629995 0.127454 0.621427
20 1 0.239565 0.256597 0.505977
24 1 0.385842 0.362224 0.628751
28 1 0.745899 0.249396 0.476372
32 1 0.863114 0.356789 0.623142
19 1 0.25 0 0.75
23 1 0.375 0.125 0.875
27 1 0.75 0 0.75
31 1 0.875 0.125 0.875
18 1 0 0.25 0.75
22 1 0.125 0.375 0.875
26 1 0.511292 0.24826 0.758008
30 1 0.630744 0.380254 0.878909
33 1 0 0.5 0
37 1 0.125 0.625 0.125
41 1 0.512722 0.504513 0.00581346
45 1 0.638176 0.62092 0.128809
36 1 0.25 0.75 0
40 1 0.375 0.875 0.125
44 1 0.75 0.75 0
48 1 0.875 0.875 0.125
35 1 0.2588 0.505543 0.245806
39 1 0.390873 0.619473 0.381638
43 1 0.753499 0.490713 0.249626
47 1 0.856344 0.631254 0.37225
34 1 0 0.75 0.25
38 1 0.125 0.875 0.375
42 1 0.516742 0.740086 0.255133
46 1 0.617027 0.888753 0.370862
49 1 -0.0176922 0.492749 0.497363
53 1 0.122838 0.621162 0.622978
61 1 0.622027 0.644591 0.616376
52 1 0.255357 0.745061 0.494692
56 1 0.370325 0.872358 0.627556
57 1 0.875 0.875 0.625
60 1 0.746338 0.775738 0.4938
51 1 0.257745 0.494274 0.755269
55 1 0.375734 0.620577 0.88722
59 1 0.746687 0.505885 0.736585
63 1 0.875 0.625 0.875
50 1 0 0.75 0.75
54 1 0.125 0.875 0.875
58 1 0.490376 0.746764 0.756949
62 1 0.625 0.875 0.875
ITEM: TIMESTEP
400
ITEM: NUMBER OF ATOMS
63
ITEM: BOX BOUNDS pp pp pp
0.0000000000000000e+00 1.0859999999999999e+01
0.0000000000000000e+00 1.0859999999999999e+01
0.0000000000000000e+00 1.0859999999999999e+01
ITEM: ATOMS id type xs ys zs
1 1 0 0 0
5 1 0.125 0.125 0.125
9 1 0.5 0 0
13 1 0.625 0.125 0.125
4 1 0.25 0.25 0
8 1 0.378389 0.380248 0.118709
12 1 0.75 0.25 0
16 1 0.875 0.375 0.125
3 1 0.25 0 0.25
7 1 0.359894 0.12822 0.388037
11 1 0.75 0 0.25
15 1 0.875 0.125 0.375
2 1 0 0.25 0.25
6 1 0.122556 0.385006 0.370154
10 1 0.491765 0.252804 0.258141
14 1 0.614251 0.380805 0.368677
17 1 0 0 0.5
21 1 0.125 0.125 0.625
25 1 0.496932 0.00238709 0.509571
29 1 0.632373 0.127301 0.617964
20 1 0.24124 0.256606 0.505064
24 1 0.384066 0.364686 0.63271
28 1 0.738954 0.25172 0.485862
32 1 0.858468 0.357807 0.618085
19 1 0.25 0 0.75
23 1 0.375 0.125 0.875
27 1 0.75 0 0.75
31 1 0.875 0.125 0.875
18 1 0 0.25 0.75
22 1 0.125 0.375 0.875
26 1 0.511067 0.246389 0.759817
30 1 0.63691 0.383136 0.873578
33 1 0 0.5 0
37 1 0.125 0.625 0.125
41 1 0.512673 0.502105 0.00868785
45 1 0.635618 0.626776 0.12669
36 1 0.25 0.75 0
40 1 0.375 0.875 0.125
44 1 0.75 0.75 0
48 1 0.875 0.875 0.125
35 1 0.261312 0.504273 0.250033
39 1 0.389421 0.612766 0.381812
43 1 0.757801 0.489786 0.250417
47 1 0.859754 0.634817 0.374843
34 1 0 0.75 0.25
38 1 0.125 0.875 0.375
42 1 0.517596 0.74441 0.24977
46 1 0.612671 0.894686 0.369456
49 1 -0.020728 0.49486 0.496062
53 1 0.124464 0.614812 0.621808
61 1 0.622873 0.65109 0.614241
52 1 0.254501 0.74603 0.498293
56 1 0.365098 0.870465 0.62638
57 1 0.875 0.875 0.625
60 1 0.742437 0.768506 0.493324
51 1 0.257768 0.491127 0.748295
55 1 0.377749 0.622569 0.887359
59 1 0.745393 0.505843 0.737822
63 1 0.875 0.625 0.875
50 1 0 0.75 0.75
54 1 0.125 0.875 0.875
58 1 0.494752 0.746391 0.759563
62 1 0.625 0.875 0.875
ITEM: TIMESTEP
500
ITEM: NUMBER OF ATOMS
63
ITEM: BOX BOUNDS pp pp pp
0.0000000000000000e+00 1.0859999999999999e+01
0.0000000000000000e+00 1.0859999999999999e+01
0.0000000000000000e+00 1.0859999999999999e+01
ITEM: ATOMS id type xs ys zs
1 1 0 0 0
5 1 0.125 0.125 0.125
9 1 0.5 0 0
13 1 0.625 0.125 0.125
4 1 0.25 0.25 0
8 1 0.378612 0.378844 0.124077
12 1 0.75 0.25 0
16 1 0.875 0.375 0.125
3 1 0.25 0 0.25
7 1 0.361356 0.1303 0.384548
11 1 0.75 0 0.25
15 1 0.875 0.125 0.375
2 1 0 0.25 0.25
6 1 0.123825 0.389942 0.374549
10 1 0.493118 0.250422 0.255084
14 1 0.608247 0.377711 0.367977
17 1 0 0 0.5
21 1 0.125 0.125 0.625
25 1 0.494156 0.00652865 0.509977
29 1 0.631125 0.126012 0.618892
20 1 0.24394 0.258161 0.50449
24 1 0.381128 0.36733 0.635279
28 1 0.732736 0.252145 0.494861
32 1 0.857401 0.364429 0.615849
19 1 0.25 0 0.75
23 1 0.375 0.125 0.875
27 1 0.75 0 0.75
31 1 0.875 0.125 0.875
18 1 0 0.25 0.75
22 1 0.125 0.375 0.875
26 1 0.511256 0.244809 0.75911
30 1 0.639419 0.384562 0.869762
33 1 0 0.5 0
37 1 0.125 0.625 0.125
41 1 0.511814 0.499551 0.00762009
45 1 0.6349 0.630004 0.12585
36 1 0.25 0.75 0
40 1 0.375 0.875 0.125
44 1 0.75 0.75 0
48 1 0.875 0.875 0.125
35 1 0.261022 0.502306 0.253745
39 1 0.388022 0.610361 0.380691
43 1 0.757213 0.493543 0.252441
47 1 0.867085 0.637236 0.375988
34 1 0 0.75 0.25
38 1 0.125 0.875 0.375
42 1 0.51039 0.750417 0.246735
46 1 0.611127 0.896646 0.368857
49 1 -0.021493 0.49897 0.495357
53 1 0.125499 0.609308 0.620568
61 1 0.622465 0.651766 0.616244
52 1 0.251152 0.744293 0.500918
56 1 0.365286 0.869034 0.627281
57 1 0.875 0.875 0.625
60 1 0.738985 0.761782 0.491506
51 1 0.256477 0.490756 0.743352
55 1 0.379451 0.621859 0.884362
59 1 0.745837 0.507889 0.738102
63 1 0.875 0.625 0.875
50 1 0 0.75 0.75
54 1 0.125 0.875 0.875
58 1 0.499471 0.749437 0.759417
62 1 0.625 0.875 0.875
ITEM: TIMESTEP
600
ITEM: NUMBER OF ATOMS
63
ITEM: BOX BOUNDS pp pp pp
0.0000000000000000e+00 1.0859999999999999e+01
0.0000000000000000e+00 1.0859999999999999e+01
0.0000000000000000e+00 1.0859999999999999e+01
ITEM: ATOMS id type xs ys zs
1 1 0 0 0
5 1 0.125 0.125 0.125
9 1 0.5 0 0
13 1 0.625 0.125 0.125
4 1 0.25 0.25 0
8 1 0.378109 0.374875 0.13006
12 1 0.75 0.25 0
16 1 0.875 0.375 0.125
3 1 0.25 0 0.25
7 1 0.366877 0.130793 0.37876
11 1 0.75 0 0.25
15 1 0.875 0.125 0.375
2 1 0 0.25 0.25
6 1 0.123915 0.390722 0.379749
10 1 0.49323 0.245063 0.248565
14 1 0.606485 0.37641 0.369848
17 1 0 0 0.5
21 1 0.125 0.125 0.625
25 1 0.487786 0.0101762 0.508152
29 1 0.625121 0.122646 0.625699
20 1 0.246704 0.260708 0.504572
24 1 0.379168 0.367964 0.635016
28 1 0.729906 0.251662 0.498879
32 1 0.860698 0.375147 0.617298
19 1 0.25 0 0.75
23 1 0.375 0.125 0.875
27 1 0.75 0 0.75
31 1 0.875 0.125 0.875
18 1 0 0.25 0.75
22 1 0.125 0.375 0.875
26 1 0.51156 0.244762 0.755994
30 1 0.636837 0.38305 0.869112
33 1 0 0.5 0
37 1 0.125 0.625 0.125
41 1 0.51074 0.497933 0.0036237
45 1 0.634093 0.629784 0.127088
36 1 0.25 0.75 0
40 1 0.375 0.875 0.125
44 1 0.75 0.75 0
48 1 0.875 0.875 0.125
35 1 0.257405 0.500778 0.255099
39 1 0.387091 0.614178 0.37927
43 1 0.752105 0.500531 0.255337
47 1 0.874601 0.637451 0.374919
34 1 0 0.75 0.25
38 1 0.125 0.875 0.375
42 1 0.497803 0.755908 0.246845
46 1 0.611881 0.893769 0.369776
49 1 -0.0191416 0.503588 0.495909
53 1 0.124628 0.607176 0.619409
61 1 0.620529 0.6452 0.622496
52 1 0.2469 0.739964 0.501374
56 1 0.370758 0.868848 0.629958
57 1 0.875 0.875 0.625
60 1 0.737985 0.759662 0.48839
51 1 0.253542 0.493477 0.74415
55 1 0.380292 0.619223 0.878532
59 1 0.748234 0.512641 0.736889
63 1 0.875 0.625 0.875
50 1 0 0.75 0.75
54 1 0.125 0.875 0.875
58 1 0.502018 0.75446 0.756752
62 1 0.625 0.875 0.875
ITEM: TIMESTEP
700
ITEM: NUMBER OF ATOMS
63
ITEM: BOX BOUNDS pp pp pp
0.0000000000000000e+00 1.0859999999999999e+01
0.0000000000000000e+00 1.0859999999999999e+01
0.0000000000000000e+00 1.0859999999999999e+01
ITEM: ATOMS id type xs ys zs
1 1 0 0 0
5 1 0.125 0.125 0.125
9 1 0.5 0 0
13 1 0.625 0.125 0.125
4 1 0.25 0.25 0
8 1 0.376555 0.370766 0.132653
12 1 0.75 0.25 0
16 1 0.875 0.375 0.125
3 1 0.25 0 0.25
7 1 0.37225 0.130579 0.372384
11 1 0.75 0 0.25
15 1 0.875 0.125 0.375
2 1 0 0.25 0.25
6 1 0.122572 0.386799 0.38396
10 1 0.494519 0.239325 0.242313
14 1 0.608102 0.376007 0.372809
17 1 0 0 0.5
21 1 0.125 0.125 0.625
25 1 0.481867 0.0106961 0.505046
29 1 0.617152 0.118723 0.633967
20 1 0.249293 0.261566 0.504323
24 1 0.378472 0.367674 0.632951
28 1 0.731681 0.251164 0.49975
32 1 0.866296 0.385077 0.620603
19 1 0.25 0 0.75
23 1 0.375 0.125 0.875
27 1 0.75 0 0.75
31 1 0.875 0.125 0.875
18 1 0 0.25 0.75
22 1 0.125 0.375 0.875
26 1 0.509522 0.246994 0.752648
30 1 0.631771 0.379509 0.870121
33 1 0 0.5 0
37 1 0.125 0.625 0.125
41 1 0.508623 0.497119 -0.000334778
45 1 0.629707 0.628114 0.129572
36 1 0.25 0.75 0
40 1 0.375 0.875 0.125
44 1 0.75 0.75 0
48 1 0.875 0.875 0.125
35 1 0.251795 0.50066 0.254657
39 1 0.384957 0.622779 0.377466
43 1 0.74564 0.507488 0.257807
47 1 0.877907 0.635746 0.372847
34 1 0 0.75 0.25
38 1 0.125 0.875 0.375
42 1 0.486759 0.75833 0.249848
46 1 0.612721 0.88748 0.372315
49 1 -0.0132279 0.507055 0.497619
53 1 0.121713 0.610094 0.61968
61 1 0.61935 0.635099 0.628741
52 1 0.244723 0.735848 0.500403
56 1 0.376482 0.869995 0.631419
57 1 0.875 0.875 0.625
60 1 0.739174 0.760168 0.487051
51 1 0.250261 0.496949 0.749816
55 1 0.379905 0.617653 0.871477
59 1 0.751019 0.517275 0.737497
63 1 0.875 0.625 0.875
50 1 0 0.75 0.75
54 1 0.125 0.875 0.875
58 1 0.501519 0.758004 0.753167
62 1 0.625 0.875 0.875
ITEM: TIMESTEP
800
ITEM: NUMBER OF ATOMS
63
ITEM: BOX BOUNDS pp pp pp
0.0000000000000000e+00 1.0859999999999999e+01
0.0000000000000000e+00 1.0859999999999999e+01
0.0000000000000000e+00 1.0859999999999999e+01
ITEM: ATOMS id type xs ys zs
1 1 0 0 0
5 1 0.125 0.125 0.125
9 1 0.5 0 0
13 1 0.625 0.125 0.125
4 1 0.25 0.25 0
8 1 0.373894 0.369082 0.129926
12 1 0.75 0.25 0
16 1 0.875 0.375 0.125
3 1 0.25 0 0.25
7 1 0.373464 0.130006 0.367239
11 1 0.75 0 0.25
15 1 0.875 0.125 0.375
2 1 0 0.25 0.25
6 1 0.120404 0.379703 0.385106
10 1 0.498294 0.23749 0.240084
14 1 0.611406 0.375112 0.374893
17 1 0 0 0.5
21 1 0.125 0.125 0.625
25 1 0.480889 0.00710808 0.502202
29 1 0.611198 0.115876 0.637562
20 1 0.251592 0.258294 0.502912
24 1 0.377697 0.369461 0.631031
28 1 0.737151 0.250428 0.50093
32 1 0.872151 0.390182 0.623931
19 1 0.25 0 0.75
23 1 0.375 0.125 0.875
27 1 0.75 0 0.75
31 1 0.875 0.125 0.875
18 1 0 0.25 0.75
22 1 0.125 0.375 0.875
26 1 0.503093 0.251289 0.751788
30 1 0.627833 0.375723 0.871114
33 1 0 0.5 0
37 1 0.125 0.625 0.125
41 1 0.504297 0.496768 -0.00230021
45 1 0.620718 0.627749 0.131114
36 1 0.25 0.75 0
40 1 0.375 0.875 0.125
44 1 0.75 0.75 0
48 1 0.875 0.875 0.125
35 1 0.246488 0.501551 0.254204
39 1 0.379289 0.631323 0.375549
43 1 0.740483 0.511157 0.259209
47 1 0.875875 0.632783 0.371736
34 1 0 0.75 0.25
38 1 0.125 0.875 0.375
42 1 0.483212 0.757397 0.254281
46 1 0.612051 0.880783 0.375018
49 1 -0.00526791 0.508276 0.499204
53 1 0.118737 0.61818 0.623637
61 1 0.619203 0.627075 0.630666
52 1 0.245559 0.735457 0.499158
56 1 0.376935 0.872532 0.629023
57 1 0.875 0.875 0.625
60 1 0.742149 0.759099 0.490407
51 1 0.247562 0.498674 0.755112
55 1 0.378796 0.619522 0.866478
59 1 0.753074 0.517433 0.743367
63 1 0.875 0.625 0.875
50 1 0 0.75 0.75
54 1 0.125 0.875 0.875
58 1 0.499961 0.757112 0.75048
62 1 0.625 0.875 0.875
ITEM: TIMESTEP
900
ITEM: NUMBER OF ATOMS
63
ITEM: BOX BOUNDS pp pp pp
0.0000000000000000e+00 1.0859999999999999e+01
0.0000000000000000e+00 1.0859999999999999e+01
0.0000000000000000e+00 1.0859999999999999e+01
ITEM: ATOMS id type xs ys zs
1 1 0 0 0
5 1 0.125 0.125 0.125
9 1 0.5 0 0
13 1 0.625 0.125 0.125
4 1 0.25 0.25 0
8 1 0.371179 0.370599 0.123964
12 1 0.75 0.25 0
16 1 0.875 0.375 0.125
3 1 0.25 0 0.25
7 1 0.370975 0.128606 0.365047
11 1 0.75 0 0.25
15 1 0.875 0.125 0.375
2 1 0 0.25 0.25
6 1 0.118749 0.37194 0.382343
10 1 0.502501 0.242613 0.242805
14 1 0.615922 0.372998 0.375709
17 1 0 0 0.5
21 1 0.125 0.125 0.625
25 1 0.485576 0.00104156 0.499137
29 1 0.608517 0.115424 0.635156
20 1 0.253398 0.251116 0.500546
24 1 0.375132 0.374781 0.629442
28 1 0.744633 0.249623 0.503849
32 1 0.877254 0.389354 0.626885
19 1 0.25 0 0.75
23 1 0.375 0.125 0.875
27 1 0.75 0 0.75
31 1 0.875 0.125 0.875
18 1 0 0.25 0.75
22 1 0.125 0.375 0.875
26 1 0.494049 0.255357 0.753429
30 1 0.626305 0.373473 0.872253
33 1 0 0.5 0
37 1 0.125 0.625 0.125
41 1 0.497634 0.496904 -0.00236633
45 1 0.609752 0.629533 0.130658
36 1 0.25 0.75 0
40 1 0.375 0.875 0.125
44 1 0.75 0.75 0
48 1 0.875 0.875 0.125
35 1 0.243362 0.501824 0.254425
39 1 0.369351 0.634365 0.374077
43 1 0.737153 0.509876 0.258526
47 1 0.871065 0.629459 0.37299
34 1 0 0.75 0.25
38 1 0.125 0.875 0.375
42 1 0.48821 0.755184 0.256755
46 1 0.611248 0.8761 0.377099
49 1 0.00204498 0.50748 0.49976
53 1 0.118355 0.628697 0.630858
61 1 0.619919 0.623242 0.627918
52 1 0.247358 0.741583 0.499556
56 1 0.371148 0.875048 0.623606
57 1 0.875 0.875 0.625
60 1 0.745938 0.754712 0.498414
51 1 0.245478 0.498972 0.755438
55 1 0.377231 0.624485 0.866497
59 1 0.753129 0.510948 0.753149
63 1 0.875 0.625 0.875
50 1 0 0.75 0.75
54 1 0.125 0.875 0.875
58 1 0.499015 0.752589 0.748492
62 1 0.625 0.875 0.875
ITEM: TIMESTEP
1000
ITEM: NUMBER OF ATOMS
63
ITEM: BOX BOUNDS pp pp pp
0.0000000000000000e+00 1.0859999999999999e+01
0.0000000000000000e+00 1.0859999999999999e+01
0.0000000000000000e+00 1.0859999999999999e+01
ITEM: ATOMS id type xs ys zs
1 1 0 0 0
5 1 0.125 0.125 0.125
9 1 0.5 0 0
13 1 0.625 0.125 0.125
4 1 0.25 0.25 0
8 1 0.369459 0.37462 0.11926
12 1 0.75 0.25 0
16 1 0.875 0.375 0.125
3 1 0.25 0 0.25
7 1 0.369244 0.12629 0.366404
11 1 0.75 0 0.25
15 1 0.875 0.125 0.375
2 1 0 0.25 0.25
6 1 0.119664 0.365773 0.377416
10 1 0.504158 0.252829 0.248274
14 1 0.622086 0.369892 0.376553
17 1 0 0 0.5
21 1 0.125 0.125 0.625
25 1 0.49248 -0.00448122 0.49546
29 1 0.609019 0.118672 0.6293
20 1 0.253905 0.243493 0.498415
24 1 0.370041 0.381874 0.627003
28 1 0.752232 0.249058 0.50801
32 1 0.880959 0.383721 0.629694
19 1 0.25 0 0.75
23 1 0.375 0.125 0.875
27 1 0.75 0 0.75
31 1 0.875 0.125 0.875
18 1 0 0.25 0.75
22 1 0.125 0.375 0.875
26 1 0.486614 0.257291 0.755185
30 1 0.625704 0.373532 0.874944
33 1 0 0.5 0
37 1 0.125 0.625 0.125
41 1 0.490145 0.497945 -0.00205919
45 1 0.601965 0.631268 0.127942
36 1 0.25 0.75 0
40 1 0.375 0.875 0.125
44 1 0.75 0.75 0
48 1 0.875 0.875 0.125
35 1 0.242437 0.500033 0.254331
39 1 0.358099 0.631601 0.372305
43 1 0.735357 0.50467 0.254508
47 1 0.866852 0.626385 0.3764
34 1 0 0.75 0.25
38 1 0.125 0.875 0.375
42 1 0.495728 0.752611 0.256331
46 1 0.614434 0.873395 0.379076
49 1 0.00675428 0.506366 0.499936
53 1 0.122526 0.63612 0.636387
61 1 0.622721 0.621834 0.623723
52 1 0.246884 0.753578 0.502593
56 1 0.363717 0.876016 0.618409
57 1 0.875 0.875 0.625
60 1 0.748472 0.748448 0.507874
51 1 0.244559 0.500354 0.751296
55 1 0.373999 0.629703 0.871447
59 1 0.749971 0.499683 0.761321
63 1 0.875 0.625 0.875
50 1 0 0.75 0.75
54 1 0.125 0.875 0.875
58 1 0.498381 0.747975 0.745619
62 1 0.625 0.875 0.875
ITEM: TIMESTEP
1100
ITEM: NUMBER OF ATOMS
63
ITEM: BOX BOUNDS pp pp pp
0.0000000000000000e+00 1.0859999999999999e+01
0.0000000000000000e+00 1.0859999999999999e+01
0.0000000000000000e+00 1.0859999999999999e+01
ITEM: ATOMS id type xs ys zs
1 1 0 0 0
5 1 0.125 0.125 0.125
9 1 0.5 0 0
13 1 0.625 0.125 0.125
4 1 0.25 0.25 0
8 1 0.368528 0.379507 0.119501
12 1 0.75 0.25 0
16 1 0.875 0.375 0.125
3 1 0.25 0 0.25
7 1 0.372412 0.123461 0.370039
11 1 0.75 0 0.25
15 1 0.875 0.125 0.375
2 1 0 0.25 0.25
6 1 0.123894 0.363004 0.373397
10 1 0.501715 0.261911 0.252456
14 1 0.630211 0.367401 0.379293
17 1 0 0 0.5
21 1 0.125 0.125 0.625
25 1 0.497059 -0.00686272 0.492813
29 1 0.612597 0.125088 0.623189
20 1 0.25216 0.239444 0.497886
24 1 0.364048 0.387079 0.622799
28 1 0.758259 0.248395 0.511691
32 1 0.882621 0.376127 0.632049
19 1 0.25 0 0.75
23 1 0.375 0.125 0.875
27 1 0.75 0 0.75
31 1 0.875 0.125 0.875
18 1 0 0.25 0.75
22 1 0.125 0.375 0.875
26 1 0.483625 0.258063 0.754493
30 1 0.622658 0.374007 0.880325
33 1 0 0.5 0
37 1 0.125 0.625 0.125
41 1 0.484492 0.500361 -0.00293952
45 1 0.60163 0.630038 0.122294
36 1 0.25 0.75 0
40 1 0.375 0.875 0.125
44 1 0.75 0.75 0
48 1 0.875 0.875 0.125
35 1 0.241886 0.495608 0.252128
39 1 0.349767 0.6285 0.370948
43 1 0.73571 0.498322 0.247839
47 1 0.865097 0.623316 0.379916
34 1 0 0.75 0.25
38 1 0.125 0.875 0.375
42 1 0.498241 0.750112 0.255717
46 1 0.624341 0.870701 0.380448
49 1 0.00888638 0.505362 0.50073
53 1 0.130117 0.638199 0.635597
61 1 0.626726 0.619364 0.622311
52 1 0.242014 0.764205 0.504932
56 1 0.362076 0.87729 0.617004
57 1 0.875 0.875 0.625
60 1 0.749341 0.743357 0.514231
51 1 0.24486 0.504014 0.747481
55 1 0.369121 0.63234 0.87721
59 1 0.746156 0.489293 0.763196
63 1 0.875 0.625 0.875
50 1 0 0.75 0.75
54 1 0.125 0.875 0.875
58 1 0.49737 0.745914 0.742075
62 1 0.625 0.875 0.875
ITEM: TIMESTEP
1200
ITEM: NUMBER OF ATOMS
63
ITEM: BOX BOUNDS pp pp pp
0.0000000000000000e+00 1.0859999999999999e+01
0.0000000000000000e+00 1.0859999999999999e+01
0.0000000000000000e+00 1.0859999999999999e+01
ITEM: ATOMS id type xs ys zs
1 1 0 0 0
5 1 0.125 0.125 0.125
9 1 0.5 0 0
13 1 0.625 0.125 0.125
4 1 0.25 0.25 0
8 1 0.367873 0.382791 0.124181
12 1 0.75 0.25 0
16 1 0.875 0.375 0.125
3 1 0.25 0 0.25
7 1 0.379695 0.12091 0.373867
11 1 0.75 0 0.25
15 1 0.875 0.125 0.375
2 1 0 0.25 0.25
6 1 0.129287 0.36414 0.372317
10 1 0.496688 0.266034 0.253948
14 1 0.639091 0.366604 0.383799
17 1 0 0 0.5
21 1 0.125 0.125 0.625
25 1 0.499704 -0.00584794 0.492582
29 1 0.617897 0.132199 0.619406
20 1 0.2492 0.240118 0.498855
24 1 0.359628 0.388097 0.617174
28 1 0.762003 0.247015 0.512762
32 1 0.882268 0.370203 0.633168
19 1 0.25 0 0.75
23 1 0.375 0.125 0.875
27 1 0.75 0 0.75
31 1 0.875 0.125 0.875
18 1 0 0.25 0.75
22 1 0.125 0.375 0.875
26 1 0.485416 0.258881 0.750351
30 1 0.615358 0.373208 0.886715
33 1 0 0.5 0
37 1 0.125 0.625 0.125
41 1 0.482506 0.503891 -0.00454864
45 1 0.608589 0.625934 0.115446
36 1 0.25 0.75 0
40 1 0.375 0.875 0.125
44 1 0.75 0.75 0
48 1 0.875 0.875 0.125
35 1 0.240785 0.490325 0.247515
39 1 0.345558 0.62914 0.371196
43 1 0.738751 0.493395 0.240781
47 1 0.866213 0.619914 0.381283
34 1 0 0.75 0.25
38 1 0.125 0.875 0.375
42 1 0.495467 0.747854 0.256269
46 1 0.637509 0.867029 0.380386
49 1 0.00931043 0.503358 0.502485
53 1 0.135355 0.636851 0.628682
61 1 0.62913 0.613781 0.626165
52 1 0.2359 0.767169 0.504221
56 1 0.36889 0.88033 0.620256
57 1 0.875 0.875 0.625
60 1 0.75045 0.741473 0.514798
51 1 0.24615 0.50861 0.747841
55 1 0.36515 0.631466 0.878592
59 1 0.744978 0.484111 0.758597
63 1 0.875 0.625 0.875
50 1 0 0.75 0.75
54 1 0.125 0.875 0.875
58 1 0.49576 0.746573 0.739585
62 1 0.625 0.875 0.875
ITEM: TIMESTEP
1300
ITEM: NUMBER OF ATOMS
63
ITEM: BOX BOUNDS pp pp pp
0.0000000000000000e+00 1.0859999999999999e+01
0.0000000000000000e+00 1.0859999999999999e+01
0.0000000000000000e+00 1.0859999999999999e+01
ITEM: ATOMS id type xs ys zs
1 1 0 0 0
5 1 0.125 0.125 0.125
9 1 0.5 0 0
13 1 0.625 0.125 0.125
4 1 0.25 0.25 0
8 1 0.368376 0.382384 0.128597
12 1 0.75 0.25 0
16 1 0.875 0.375 0.125
3 1 0.25 0 0.25
7 1 0.385956 0.120315 0.375852
11 1 0.75 0 0.25
15 1 0.875 0.125 0.375
2 1 0 0.25 0.25
6 1 0.131671 0.367879 0.374184
10 1 0.493588 0.265224 0.254758
14 1 0.646038 0.367636 0.387247
17 1 0 0 0.5
21 1 0.125 0.125 0.625
25 1 0.504683 -0.00351835 0.494769
29 1 0.62278 0.13673 0.619445
20 1 0.247826 0.243403 0.499653
24 1 0.358002 0.385711 0.612359
28 1 0.76414 0.245067 0.510109
32 1 0.880829 0.368477 0.632279
19 1 0.25 0 0.75
23 1 0.375 0.125 0.875
27 1 0.75 0 0.75
31 1 0.875 0.125 0.875
18 1 0 0.25 0.75
22 1 0.125 0.375 0.875
26 1 0.49032 0.259618 0.743503
30 1 0.606459 0.371819 0.890012
33 1 0 0.5 0
37 1 0.125 0.625 0.125
41 1 0.483633 0.507101 -0.00458091
45 1 0.618993 0.621344 0.111503
36 1 0.25 0.75 0
40 1 0.375 0.875 0.125
44 1 0.75 0.75 0
48 1 0.875 0.875 0.125
35 1 0.239537 0.488815 0.243338
39 1 0.344231 0.632625 0.371928
43 1 0.743638 0.491263 0.236014
47 1 0.86993 0.616363 0.379606
34 1 0 0.75 0.25
38 1 0.125 0.875 0.375
42 1 0.491965 0.745423 0.256911
46 1 0.646788 0.86353 0.378822
49 1 0.00853146 0.499373 0.504482
53 1 0.133031 0.632918 0.620174
61 1 0.62886 0.607664 0.633041
52 1 0.236285 0.764537 0.502752
56 1 0.37918 0.882625 0.624423
57 1 0.875 0.875 0.625
60 1 0.752909 0.74081 0.511295
51 1 0.247739 0.511326 0.751303
55 1 0.364517 0.628924 0.873988
59 1 0.746205 0.483367 0.752573
63 1 0.875 0.625 0.875
50 1 0 0.75 0.75
54 1 0.125 0.875 0.875
58 1 0.494702 0.748102 0.74028
62 1 0.625 0.875 0.875
ITEM: TIMESTEP
1400
ITEM: NUMBER OF ATOMS
63
ITEM: BOX BOUNDS pp pp pp
0.0000000000000000e+00 1.0859999999999999e+01
0.0000000000000000e+00 1.0859999999999999e+01
0.0000000000000000e+00 1.0859999999999999e+01
ITEM: ATOMS id type xs ys zs
1 1 0 0 0
5 1 0.125 0.125 0.125
9 1 0.5 0 0
13 1 0.625 0.125 0.125
4 1 0.25 0.25 0
8 1 0.370683 0.378497 0.128873
12 1 0.75 0.25 0
16 1 0.875 0.375 0.125
3 1 0.25 0 0.25
7 1 0.387284 0.121935 0.37565
11 1 0.75 0 0.25
15 1 0.875 0.125 0.375
2 1 0 0.25 0.25
6 1 0.128776 0.372417 0.377554
10 1 0.496232 0.260741 0.25642
14 1 0.648805 0.370801 0.386771
17 1 0 0 0.5
21 1 0.125 0.125 0.625
25 1 0.514231 -0.00135858 0.498443
29 1 0.626878 0.136344 0.622794
20 1 0.249072 0.246045 0.49875
24 1 0.359613 0.382714 0.611019
28 1 0.765276 0.243681 0.505037
32 1 0.879592 0.37044 0.629047
19 1 0.25 0 0.75
23 1 0.375 0.125 0.875
27 1 0.75 0 0.75
31 1 0.875 0.125 0.875
18 1 0 0.25 0.75
22 1 0.125 0.375 0.875
26 1 0.495148 0.259825 0.735735
30 1 0.600392 0.370094 0.888272
33 1 0 0.5 0
37 1 0.125 0.625 0.125
41 1 0.485961 0.508784 -0.0017499
45 1 0.628668 0.618206 0.112913
36 1 0.25 0.75 0
40 1 0.375 0.875 0.125
44 1 0.75 0.75 0
48 1 0.875 0.875 0.125
35 1 0.238736 0.493297 0.242728
39 1 0.345083 0.63576 0.371223
43 1 0.749089 0.492197 0.236251
47 1 0.875675 0.613243 0.375284
34 1 0 0.75 0.25
38 1 0.125 0.875 0.375
42 1 0.49138 0.743264 0.256224
46 1 0.647653 0.861423 0.375732
49 1 0.0060445 0.493497 0.504829
53 1 0.124196 0.626839 0.615327
61 1 0.626105 0.605741 0.637829
52 1 0.244932 0.760511 0.502528
56 1 0.387278 0.882925 0.62647
57 1 0.875 0.875 0.625
60 1 0.756273 0.737769 0.50753
51 1 0.247088 0.509425 0.753117
55 1 0.368124 0.628561 0.867171
59 1 0.748735 0.48429 0.751233
63 1 0.875 0.625 0.875
50 1 0 0.75 0.75
54 1 0.125 0.875 0.875
58 1 0.496608 0.748377 0.745456
62 1 0.625 0.875 0.875
ITEM: TIMESTEP
1500
ITEM: NUMBER OF ATOMS
63
ITEM: BOX BOUNDS pp pp pp
0.0000000000000000e+00 1.0859999999999999e+01
0.0000000000000000e+00 1.0859999999999999e+01
0.0000000000000000e+00 1.0859999999999999e+01
ITEM: ATOMS id type xs ys zs
1 1 0 0 0
5 1 0.125 0.125 0.125
9 1 0.5 0 0
13 1 0.625 0.125 0.125
4 1 0.25 0.25 0
8 1 0.37353 0.373752 0.126337
12 1 0.75 0.25 0
16 1 0.875 0.375 0.125
3 1 0.25 0 0.25
7 1 0.384356 0.123747 0.375284
11 1 0.75 0 0.25
15 1 0.875 0.125 0.375
2 1 0 0.25 0.25
6 1 0.122752 0.375612 0.379711
10 1 0.504692 0.254597 0.25789
14 1 0.646657 0.375424 0.381934
17 1 0 0 0.5
21 1 0.125 0.125 0.625
25 1 0.525252 0.000354171 0.501414
29 1 0.632318 0.131461 0.626823
20 1 0.251326 0.246614 0.496087
24 1 0.364238 0.381034 0.613795
28 1 0.764159 0.244387 0.500482
32 1 0.878889 0.372882 0.624759
19 1 0.25 0 0.75
23 1 0.375 0.125 0.875
27 1 0.75 0 0.75
31 1 0.875 0.125 0.875
18 1 0 0.25 0.75
22 1 0.125 0.375 0.875
26 1 0.497172 0.258985 0.729819
30 1 0.599853 0.368246 0.882749
33 1 0 0.5 0
37 1 0.125 0.625 0.125
41 1 0.488539 0.508826 0.00277488
45 1 0.634563 0.617593 0.119289
36 1 0.25 0.75 0
40 1 0.375 0.875 0.125
44 1 0.75 0.75 0
48 1 0.875 0.875 0.125
35 1 0.239875 0.500345 0.246247
39 1 0.349172 0.635919 0.367684
43 1 0.754909 0.495396 0.242253
47 1 0.882291 0.61127 0.369831
34 1 0 0.75 0.25
38 1 0.125 0.875 0.375
42 1 0.494883 0.742136 0.253072
46 1 0.640521 0.860426 0.37244
49 1 0.000803947 0.487903 0.502131
53 1 0.115323 0.621727 0.616219
61 1 0.622119 0.609318 0.638315
52 1 0.25532 0.757331 0.504806
56 1 0.391386 0.881538 0.626346
57 1 0.875 0.875 0.625
60 1 0.759324 0.731972 0.504797
51 1 0.243409 0.503031 0.75009
55 1 0.373655 0.630756 0.863551
59 1 0.7516 0.485911 0.75604
63 1 0.875 0.625 0.875
50 1 0 0.75 0.75
54 1 0.125 0.875 0.875
58 1 0.502648 0.747734 0.752985
62 1 0.625 0.875 0.875
ITEM: TIMESTEP
1600
ITEM: NUMBER OF ATOMS
63
ITEM: BOX BOUNDS pp pp pp
0.0000000000000000e+00 1.0859999999999999e+01
0.0000000000000000e+00 1.0859999999999999e+01
0.0000000000000000e+00 1.0859999999999999e+01
ITEM: ATOMS id type xs ys zs
1 1 0 0 0
5 1 0.125 0.125 0.125
9 1 0.5 0 0
13 1 0.625 0.125 0.125
4 1 0.25 0.25 0
8 1 0.376063 0.370314 0.125073
12 1 0.75 0.25 0
16 1 0.875 0.375 0.125
3 1 0.25 0 0.25
7 1 0.380662 0.124006 0.37611
11 1 0.75 0 0.25
15 1 0.875 0.125 0.375
2 1 0 0.25 0.25
6 1 0.118419 0.375271 0.377893
10 1 0.514891 0.24888 0.257471
14 1 0.640424 0.379305 0.374783
17 1 0 0 0.5
21 1 0.125 0.125 0.625
25 1 0.532219 0.000862192 0.501667
29 1 0.639659 0.125969 0.629206
20 1 0.2526 0.246734 0.493727
24 1 0.369832 0.380405 0.618175
28 1 0.759404 0.247871 0.498063
32 1 0.877131 0.372674 0.622431
19 1 0.25 0 0.75
23 1 0.375 0.125 0.875
27 1 0.75 0 0.75
31 1 0.875 0.125 0.875