ITEM: TIMESTEP
0
ITEM: NUMBER OF ATOMS
61
ITEM: BOX BOUNDS pp pp pp
0.0000000000000000e+00 1.0859999999999999e+01
0.0000000000000000e+00 1.0859999999999999e+01
0.0000000000000000e+00 1.0859999999999999e+01
ITEM: ATOMS id type xs ys zs
1 1 0 0 0
5 1 0.125 0.125 0.125
9 1 0.5 0 0
13 1 0.625 0.125 0.125
4 1 0.25 0.25 0
8 1 0.375 0.375 0.125
12 1 0.75 0.25 0
14 1 0.875 0.375 0.125
3 1 0.25 0 0.25
7 1 0.375 0.125 0.375
11 1 0.75 0 0.25
15 1 0.875 0.125 0.375
2 1 0 0.25 0.25
6 1 0.125 0.375 0.375
10 1 0.5 0.25 0.25
16 1 0 0 0.5
20 1 0.125 0.125 0.625
24 1 0.5 0 0.5
28 1 0.625 0.125 0.625
19 1 0.25 0.25 0.5
23 1 0.875 0.375 0.625
27 1 0.75 0.25 0.5
18 1 0.25 0 0.75
22 1 0.375 0.125 0.875
26 1 0.75 0 0.75
30 1 0.875 0.125 0.875
17 1 0 0.25 0.75
21 1 0.125 0.375 0.875
25 1 0.5 0.25 0.75
29 1 0.625 0.375 0.875
31 1 0 0.5 0
35 1 0.125 0.625 0.125
39 1 0.5 0.5 0
43 1 0.625 0.625 0.125
34 1 0.25 0.75 0
38 1 0.375 0.875 0.125
42 1 0.75 0.75 0
46 1 0.875 0.875 0.125
33 1 0.25 0.5 0.25
37 1 0.375 0.625 0.375
41 1 0.75 0.5 0.25
45 1 0.875 0.625 0.375
32 1 0 0.75 0.25
36 1 0.125 0.875 0.375
40 1 0.5 0.75 0.25
44 1 0.625 0.875 0.375
47 1 0 0.5 0.5
51 1 0.125 0.625 0.625
55 1 0.5 0.5 0.5
50 1 0.25 0.75 0.5
54 1 0.375 0.875 0.625
58 1 0.75 0.75 0.5
59 1 0.875 0.875 0.625
49 1 0.25 0.5 0.75
53 1 0.375 0.625 0.875
57 1 0.75 0.5 0.75
61 1 0.875 0.625 0.875
48 1 0 0.75 0.75
52 1 0.125 0.875 0.875
56 1 0.5 0.75 0.75
60 1 0.625 0.875 0.875
ITEM: TIMESTEP
100
ITEM: NUMBER OF ATOMS
61
ITEM: BOX BOUNDS pp pp pp
0.0000000000000000e+00 1.0859999999999999e+01
0.0000000000000000e+00 1.0859999999999999e+01
0.0000000000000000e+00 1.0859999999999999e+01
ITEM: ATOMS id type xs ys zs
1 1 0 0 0
5 1 0.125 0.125 0.125
9 1 0.5 0 0
13 1 0.625 0.125 0.125
4 1 0.25 0.25 0
8 1 0.375 0.375 0.125
12 1 0.75 0.25 0
14 1 0.875 0.375 0.125
3 1 0.25 0 0.25
7 1 0.375 0.125 0.375
11 1 0.75 0 0.25
15 1 0.875 0.125 0.375
2 1 0 0.25 0.25
6 1 0.125 0.375 0.375
10 1 0.493884 0.247078 0.253555
16 1 0 0 0.5
20 1 0.125 0.125 0.625
24 1 0.5 0 0.5
28 1 0.625 0.125 0.625
19 1 0.24698 0.247009 0.487732
23 1 0.875 0.375 0.625
27 1 0.759726 0.250767 0.503478
18 1 0.25 0 0.75
22 1 0.375 0.125 0.875
26 1 0.75 0 0.75
30 1 0.875 0.125 0.875
17 1 0 0.25 0.75
21 1 0.125 0.375 0.875
25 1 0.496528 0.249496 0.75499
29 1 0.625 0.375 0.875
31 1 0 0.5 0
35 1 0.125 0.625 0.125
39 1 0.5 0.5 0
43 1 0.625 0.625 0.125
34 1 0.25 0.75 0
38 1 0.375 0.875 0.125
42 1 0.75 0.75 0
46 1 0.875 0.875 0.125
33 1 0.242323 0.504863 0.249539
37 1 0.377426 0.62646 0.38205
41 1 0.758431 0.501296 0.247841
45 1 0.875 0.625 0.375
32 1 0 0.75 0.25
36 1 0.125 0.875 0.375
40 1 0.504188 0.74668 0.243429
44 1 0.625 0.875 0.375
47 1 0 0.5 0.5
51 1 0.125 0.625 0.625
55 1 0.500106 0.493776 0.50484
50 1 0.253959 0.751757 0.506219
54 1 0.375 0.875 0.625
58 1 0.742701 0.752015 0.497805
59 1 0.875 0.875 0.625
49 1 0.244611 0.495911 0.749746
53 1 0.375 0.625 0.875
57 1 0.748894 0.506897 0.743285
61 1 0.875 0.625 0.875
48 1 0 0.75 0.75
52 1 0.125 0.875 0.875
56 1 0.505495 0.750092 0.751153
60 1 0.625 0.875 0.875
ITEM: TIMESTEP
200
ITEM: NUMBER OF ATOMS
61
ITEM: BOX BOUNDS pp pp pp
0.0000000000000000e+00 1.0859999999999999e+01
0.0000000000000000e+00 1.0859999999999999e+01
0.0000000000000000e+00 1.0859999999999999e+01
ITEM: ATOMS id type xs ys zs
1 1 0 0 0
5 1 0.125 0.125 0.125
9 1 0.5 0 0
13 1 0.625 0.125 0.125
4 1 0.25 0.25 0
8 1 0.375 0.375 0.125
12 1 0.75 0.25 0
14 1 0.875 0.375 0.125
3 1 0.25 0 0.25
7 1 0.375 0.125 0.375
11 1 0.75 0 0.25
15 1 0.875 0.125 0.375
2 1 0 0.25 0.25
6 1 0.125 0.375 0.375
10 1 0.490236 0.245079 0.253991
16 1 0 0 0.5
20 1 0.125 0.125 0.625
24 1 0.5 0 0.5
28 1 0.625 0.125 0.625
19 1 0.243234 0.243186 0.480037
23 1 0.875 0.375 0.625
27 1 0.765616 0.249082 0.506532
18 1 0.25 0 0.75
22 1 0.375 0.125 0.875
26 1 0.75 0 0.75
30 1 0.875 0.125 0.875
17 1 0 0.25 0.75
21 1 0.125 0.375 0.875
25 1 0.495651 0.248816 0.757992
29 1 0.625 0.375 0.875
31 1 0 0.5 0
35 1 0.125 0.625 0.125
39 1 0.5 0.5 0
43 1 0.625 0.625 0.125
34 1 0.25 0.75 0
38 1 0.375 0.875 0.125
42 1 0.75 0.75 0
46 1 0.875 0.875 0.125
33 1 0.24004 0.507516 0.250952
37 1 0.380121 0.626492 0.386722
41 1 0.763905 0.50366 0.245153
45 1 0.875 0.625 0.375
32 1 0 0.75 0.25
36 1 0.125 0.875 0.375
40 1 0.505444 0.745677 0.24161
44 1 0.625 0.875 0.375
47 1 0 0.5 0.5
51 1 0.125 0.625 0.625
55 1 0.499537 0.48841 0.508955
50 1 0.255348 0.752668 0.509431
54 1 0.375 0.875 0.625
58 1 0.73936 0.752883 0.496762
59 1 0.875 0.875 0.625
49 1 0.241443 0.494563 0.749905
53 1 0.375 0.625 0.875
57 1 0.747741 0.511223 0.738817
61 1 0.875 0.625 0.875
48 1 0 0.75 0.75
52 1 0.125 0.875 0.875
56 1 0.508029 0.750149 0.751751
60 1 0.625 0.875 0.875
ITEM: TIMESTEP
300
ITEM: NUMBER OF ATOMS
61
ITEM: BOX BOUNDS pp pp pp
0.0000000000000000e+00 1.0859999999999999e+01
0.0000000000000000e+00 1.0859999999999999e+01
0.0000000000000000e+00 1.0859999999999999e+01
ITEM: ATOMS id type xs ys zs
1 1 0 0 0
5 1 0.125 0.125 0.125
9 1 0.5 0 0
13 1 0.625 0.125 0.125
4 1 0.25 0.25 0
8 1 0.375 0.375 0.125
12 1 0.75 0.25 0
14 1 0.875 0.375 0.125
3 1 0.25 0 0.25
7 1 0.375 0.125 0.375
11 1 0.75 0 0.25
15 1 0.875 0.125 0.375
2 1 0 0.25 0.25
6 1 0.125 0.375 0.375
10 1 0.490767 0.244935 0.250279
16 1 0 0 0.5
20 1 0.125 0.125 0.625
24 1 0.5 0 0.5
28 1 0.625 0.125 0.625
19 1 0.238782 0.238573 0.479659
23 1 0.875 0.375 0.625
27 1 0.765276 0.244286 0.508458
18 1 0.25 0 0.75
22 1 0.375 0.125 0.875
26 1 0.75 0 0.75
30 1 0.875 0.125 0.875
17 1 0 0.25 0.75
21 1 0.125 0.375 0.875
25 1 0.498183 0.248326 0.75759
29 1 0.625 0.375 0.875
31 1 0 0.5 0
35 1 0.125 0.625 0.125
39 1 0.5 0.5 0
43 1 0.625 0.625 0.125
34 1 0.25 0.75 0
38 1 0.375 0.875 0.125
42 1 0.75 0.75 0
46 1 0.875 0.875 0.125
33 1 0.24495 0.506986 0.254501
37 1 0.382637 0.624973 0.388292
41 1 0.764387 0.507134 0.242185
45 1 0.875 0.625 0.375
32 1 0 0.75 0.25
36 1 0.125 0.875 0.375
40 1 0.502935 0.747604 0.245981
44 1 0.625 0.875 0.375
47 1 0 0.5 0.5
51 1 0.125 0.625 0.625
55 1 0.498222 0.484235 0.512158
50 1 0.253327 0.751962 0.507999
54 1 0.375 0.875 0.625
58 1 0.741473 0.751719 0.497767
59 1 0.875 0.875 0.625
49 1 0.242029 0.496832 0.750248
53 1 0.375 0.625 0.875
57 1 0.746567 0.512042 0.737466
61 1 0.875 0.625 0.875
48 1 0 0.75 0.75
52 1 0.125 0.875 0.875
56 1 0.50653 0.749835 0.751244
60 1 0.625 0.875 0.875
ITEM: TIMESTEP
400
ITEM: NUMBER OF ATOMS
61
ITEM: BOX BOUNDS pp pp pp
0.0000000000000000e+00 1.0859999999999999e+01
0.0000000000000000e+00 1.0859999999999999e+01
0.0000000000000000e+00 1.0859999999999999e+01
ITEM: ATOMS id type xs ys zs
1 1 0 0 0
5 1 0.125 0.125 0.125
9 1 0.5 0 0
13 1 0.625 0.125 0.125
4 1 0.25 0.25 0
8 1 0.375 0.375 0.125
12 1 0.75 0.25 0
14 1 0.875 0.375 0.125
3 1 0.25 0 0.25
7 1 0.375 0.125 0.375
11 1 0.75 0 0.25
15 1 0.875 0.125 0.375
2 1 0 0.25 0.25
6 1 0.125 0.375 0.375
10 1 0.494715 0.24609 0.244086
16 1 0 0 0.5
20 1 0.125 0.125 0.625
24 1 0.5 0 0.5
28 1 0.625 0.125 0.625
19 1 0.234399 0.23414 0.485497
23 1 0.875 0.375 0.625
27 1 0.759739 0.238269 0.509464
18 1 0.25 0 0.75
22 1 0.375 0.125 0.875
26 1 0.75 0 0.75
30 1 0.875 0.125 0.875
17 1 0 0.25 0.75
21 1 0.125 0.375 0.875
25 1 0.50314 0.247846 0.754205
29 1 0.625 0.375 0.875
31 1 0 0.5 0
35 1 0.125 0.625 0.125
39 1 0.5 0.5 0
43 1 0.625 0.625 0.125
34 1 0.25 0.75 0
38 1 0.375 0.875 0.125
42 1 0.75 0.75 0
46 1 0.875 0.875 0.125
33 1 0.254656 0.503965 0.2583
37 1 0.384076 0.622358 0.387502
41 1 0.760409 0.510775 0.239493
45 1 0.875 0.625 0.375
32 1 0 0.75 0.25
36 1 0.125 0.875 0.375
40 1 0.49877 0.750587 0.254119
44 1 0.625 0.875 0.375
47 1 0 0.5 0.5
51 1 0.125 0.625 0.625
55 1 0.496272 0.481482 0.514375
50 1 0.249369 0.749967 0.502795
54 1 0.375 0.875 0.625
58 1 0.747995 0.749298 0.500092
59 1 0.875 0.875 0.625
49 1 0.245958 0.501821 0.751058
53 1 0.375 0.625 0.875
57 1 0.745737 0.509263 0.739554
61 1 0.875 0.625 0.875
48 1 0 0.75 0.75
52 1 0.125 0.875 0.875
56 1 0.501618 0.749458 0.749992
60 1 0.625 0.875 0.875
ITEM: TIMESTEP
500
ITEM: NUMBER OF ATOMS
61
ITEM: BOX BOUNDS pp pp pp
0.0000000000000000e+00 1.0859999999999999e+01
0.0000000000000000e+00 1.0859999999999999e+01
0.0000000000000000e+00 1.0859999999999999e+01
ITEM: ATOMS id type xs ys zs
1 1 0 0 0
5 1 0.125 0.125 0.125
9 1 0.5 0 0
13 1 0.625 0.125 0.125
4 1 0.25 0.25 0
8 1 0.375 0.375 0.125
12 1 0.75 0.25 0
14 1 0.875 0.375 0.125
3 1 0.25 0 0.25
7 1 0.375 0.125 0.375
11 1 0.75 0 0.25
15 1 0.875 0.125 0.375
2 1 0 0.25 0.25
6 1 0.125 0.375 0.375
10 1 0.499508 0.247475 0.238963
16 1 0 0 0.5
20 1 0.125 0.125 0.625
24 1 0.5 0 0.5
28 1 0.625 0.125 0.625
19 1 0.23228 0.232271 0.492922
23 1 0.875 0.375 0.625
27 1 0.752931 0.234751 0.509361
18 1 0.25 0 0.75
22 1 0.375 0.125 0.875
26 1 0.75 0 0.75
30 1 0.875 0.125 0.875
17 1 0 0.25 0.75
21 1 0.125 0.375 0.875
25 1 0.508026 0.247175 0.749899
29 1 0.625 0.375 0.875
31 1 0 0.5 0
35 1 0.125 0.625 0.125
39 1 0.5 0.5 0
43 1 0.625 0.625 0.125
34 1 0.25 0.75 0
38 1 0.375 0.875 0.125
42 1 0.75 0.75 0
46 1 0.875 0.875 0.125
33 1 0.264049 0.499465 0.259893
37 1 0.383977 0.619327 0.386202
41 1 0.754896 0.512625 0.238323
45 1 0.875 0.625 0.375
32 1 0 0.75 0.25
36 1 0.125 0.875 0.375
40 1 0.495768 0.752403 0.261565
44 1 0.625 0.875 0.375
47 1 0 0.5 0.5
51 1 0.125 0.625 0.625
55 1 0.493841 0.480276 0.515636
50 1 0.246159 0.74764 0.49675
54 1 0.375 0.875 0.625
58 1 0.755852 0.747348 0.502118
59 1 0.875 0.875 0.625
49 1 0.250974 0.507113 0.752506
53 1 0.375 0.625 0.875
57 1 0.745764 0.503531 0.744867
61 1 0.875 0.625 0.875
48 1 0 0.75 0.75
52 1 0.125 0.875 0.875
56 1 0.495424 0.749667 0.749029
60 1 0.625 0.875 0.875
ITEM: TIMESTEP
600
ITEM: NUMBER OF ATOMS
61
ITEM: BOX BOUNDS pp pp pp
0.0000000000000000e+00 1.0859999999999999e+01
0.0000000000000000e+00 1.0859999999999999e+01
0.0000000000000000e+00 1.0859999999999999e+01
ITEM: ATOMS id type xs ys zs
1 1 0 0 0
5 1 0.125 0.125 0.125
9 1 0.5 0 0
13 1 0.625 0.125 0.125
4 1 0.25 0.25 0
8 1 0.375 0.375 0.125
12 1 0.75 0.25 0
14 1 0.875 0.375 0.125
3 1 0.25 0 0.25
7 1 0.375 0.125 0.375
11 1 0.75 0 0.25
15 1 0.875 0.125 0.375
2 1 0 0.25 0.25
6 1 0.125 0.375 0.375
10 1 0.502577 0.248735 0.237978
16 1 0 0 0.5
20 1 0.125 0.125 0.625
24 1 0.5 0 0.5
28 1 0.625 0.125 0.625
19 1 0.234943 0.235458 0.497023
23 1 0.875 0.375 0.625
27 1 0.748938 0.236704 0.507027
18 1 0.25 0 0.75
22 1 0.375 0.125 0.875
26 1 0.75 0 0.75
30 1 0.875 0.125 0.875
17 1 0 0.25 0.75
21 1 0.125 0.375 0.875
25 1 0.510104 0.246788 0.74727
29 1 0.625 0.375 0.875
31 1 0 0.5 0
35 1 0.125 0.625 0.125
39 1 0.5 0.5 0
43 1 0.625 0.625 0.125
34 1 0.25 0.75 0
38 1 0.375 0.875 0.125
42 1 0.75 0.75 0
46 1 0.875 0.875 0.125
33 1 0.268166 0.494538 0.258418
37 1 0.382846 0.6165 0.3861
41 1 0.751139 0.510837 0.240146
45 1 0.875 0.625 0.375
32 1 0 0.75 0.25
36 1 0.125 0.875 0.375
40 1 0.49514 0.752173 0.264582
44 1 0.625 0.875 0.375
47 1 0 0.5 0.5
51 1 0.125 0.625 0.625
55 1 0.491118 0.480536 0.516135
50 1 0.245691 0.745673 0.493007
54 1 0.375 0.875 0.625
58 1 0.761351 0.747181 0.502635
59 1 0.875 0.875 0.625
49 1 0.25404 0.509838 0.753778
53 1 0.375 0.625 0.875
57 1 0.747364 0.496451 0.752214
61 1 0.875 0.625 0.875
48 1 0 0.75 0.75
52 1 0.125 0.875 0.875
56 1 0.490767 0.750833 0.749411
60 1 0.625 0.875 0.875
ITEM: TIMESTEP
700
ITEM: NUMBER OF ATOMS
61
ITEM: BOX BOUNDS pp pp pp
0.0000000000000000e+00 1.0859999999999999e+01
0.0000000000000000e+00 1.0859999999999999e+01
0.0000000000000000e+00 1.0859999999999999e+01
ITEM: ATOMS id type xs ys zs
1 1 0 0 0
5 1 0.125 0.125 0.125
9 1 0.5 0 0
13 1 0.625 0.125 0.125
4 1 0.25 0.25 0
8 1 0.375 0.375 0.125
12 1 0.75 0.25 0
14 1 0.875 0.375 0.125
3 1 0.25 0 0.25
7 1 0.375 0.125 0.375
11 1 0.75 0 0.25
15 1 0.875 0.125 0.375
2 1 0 0.25 0.25
6 1 0.125 0.375 0.375
10 1 0.502704 0.24983 0.242014
16 1 0 0 0.5
20 1 0.125 0.125 0.625
24 1 0.5 0 0.5
28 1 0.625 0.125 0.625
19 1 0.242494 0.24353 0.497077
23 1 0.875 0.375 0.625
27 1 0.748896 0.244132 0.502426
18 1 0.25 0 0.75
22 1 0.375 0.125 0.875
26 1 0.75 0 0.75
30 1 0.875 0.125 0.875
17 1 0 0.25 0.75
21 1 0.125 0.375 0.875
25 1 0.507997 0.247243 0.747883
29 1 0.625 0.375 0.875
31 1 0 0.5 0
35 1 0.125 0.625 0.125
39 1 0.5 0.5 0
43 1 0.625 0.625 0.125
34 1 0.25 0.75 0
38 1 0.375 0.875 0.125
42 1 0.75 0.75 0
46 1 0.875 0.875 0.125
33 1 0.264494 0.491431 0.255204
37 1 0.381168 0.614176 0.386646
41 1 0.750248 0.505333 0.245122
45 1 0.875 0.625 0.375
32 1 0 0.75 0.25
36 1 0.125 0.875 0.375
40 1 0.496705 0.749747 0.261896
44 1 0.625 0.875 0.375
47 1 0 0.5 0.5
51 1 0.125 0.625 0.625
55 1 0.488454 0.481865 0.516324
50 1 0.248134 0.744652 0.49337
54 1 0.375 0.875 0.625
58 1 0.761938 0.749175 0.501161
59 1 0.875 0.875 0.625
49 1 0.253152 0.508305 0.753815
53 1 0.375 0.625 0.875
57 1 0.751471 0.490432 0.759288
61 1 0.875 0.625 0.875
48 1 0 0.75 0.75
52 1 0.125 0.875 0.875
56 1 0.489757 0.75289 0.751629
60 1 0.625 0.875 0.875
ITEM: TIMESTEP
800
ITEM: NUMBER OF ATOMS
61
ITEM: BOX BOUNDS pp pp pp
0.0000000000000000e+00 1.0859999999999999e+01
0.0000000000000000e+00 1.0859999999999999e+01
0.0000000000000000e+00 1.0859999999999999e+01
ITEM: ATOMS id type xs ys zs
1 1 0 0 0
5 1 0.125 0.125 0.125
9 1 0.5 0 0
13 1 0.625 0.125 0.125
4 1 0.25 0.25 0
8 1 0.375 0.375 0.125
12 1 0.75 0.25 0
14 1 0.875 0.375 0.125
3 1 0.25 0 0.25
7 1 0.375 0.125 0.375
11 1 0.75 0 0.25
15 1 0.875 0.125 0.375
2 1 0 0.25 0.25
6 1 0.125 0.375 0.375
10 1 0.500381 0.250335 0.249416
16 1 0 0 0.5
20 1 0.125 0.125 0.625
24 1 0.5 0 0.5
28 1 0.625 0.125 0.625
19 1 0.252217 0.253322 0.496069
23 1 0.875 0.375 0.625
27 1 0.750951 0.253976 0.497308
18 1 0.25 0 0.75
22 1 0.375 0.125 0.875
26 1 0.75 0 0.75
30 1 0.875 0.125 0.875
17 1 0 0.25 0.75
21 1 0.125 0.375 0.875
25 1 0.502617 0.248295 0.751209
29 1 0.625 0.375 0.875
31 1 0 0.5 0
35 1 0.125 0.625 0.125
39 1 0.5 0.5 0
43 1 0.625 0.625 0.125
34 1 0.25 0.75 0
38 1 0.375 0.875 0.125
42 1 0.75 0.75 0
46 1 0.875 0.875 0.125
33 1 0.253991 0.492572 0.251805
37 1 0.378815 0.612565 0.385457
41 1 0.750955 0.49815 0.251545
45 1 0.875 0.625 0.375
32 1 0 0.75 0.25
36 1 0.125 0.875 0.375
40 1 0.499679 0.745526 0.254926
44 1 0.625 0.875 0.375
47 1 0 0.5 0.5
51 1 0.125 0.625 0.625
55 1 0.486331 0.483642 0.516713
50 1 0.252133 0.745284 0.497794
54 1 0.375 0.875 0.625
58 1 0.757389 0.75292 0.497805
59 1 0.875 0.875 0.625
49 1 0.248756 0.503222 0.752682
53 1 0.375 0.625 0.875
57 1 0.758367 0.487281 0.763801
61 1 0.875 0.625 0.875
48 1 0 0.75 0.75
52 1 0.125 0.875 0.875
56 1 0.492619 0.755441 0.75523
60 1 0.625 0.875 0.875
ITEM: TIMESTEP
900
ITEM: NUMBER OF ATOMS
61
ITEM: BOX BOUNDS pp pp pp
0.0000000000000000e+00 1.0859999999999999e+01
0.0000000000000000e+00 1.0859999999999999e+01
0.0000000000000000e+00 1.0859999999999999e+01
ITEM: ATOMS id type xs ys zs
1 1 0 0 0
5 1 0.125 0.125 0.125
9 1 0.5 0 0
13 1 0.625 0.125 0.125
4 1 0.25 0.25 0
8 1 0.375 0.375 0.125
12 1 0.75 0.25 0
14 1 0.875 0.375 0.125
3 1 0.25 0 0.25
7 1 0.375 0.125 0.375
11 1 0.75 0 0.25
15 1 0.875 0.125 0.375
2 1 0 0.25 0.25
6 1 0.125 0.375 0.375
10 1 0.497344 0.250099 0.256754
16 1 0 0 0.5
20 1 0.125 0.125 0.625
24 1 0.5 0 0.5
28 1 0.625 0.125 0.625
19 1 0.260949 0.261506 0.496604
23 1 0.875 0.375 0.625
27 1 0.752581 0.26233 0.493331
18 1 0.25 0 0.75
22 1 0.375 0.125 0.875
26 1 0.75 0 0.75
30 1 0.875 0.125 0.875
17 1 0 0.25 0.75
21 1 0.125 0.375 0.875
25 1 0.496744 0.249362 0.754944
29 1 0.625 0.375 0.875
31 1 0 0.5 0
35 1 0.125 0.625 0.125
39 1 0.5 0.5 0
43 1 0.625 0.625 0.125
34 1 0.25 0.75 0
38 1 0.375 0.875 0.125
42 1 0.75 0.75 0
46 1 0.875 0.875 0.125
33 1 0.241314 0.497737 0.248348
37 1 0.375522 0.612311 0.381281
41 1 0.751517 0.491945 0.257148
45 1 0.875 0.625 0.375
32 1 0 0.75 0.25
36 1 0.125 0.875 0.375
40 1 0.502408 0.741313 0.247302
44 1 0.625 0.875 0.375
47 1 0 0.5 0.5
51 1 0.125 0.625 0.625
55 1 0.484899 0.485453 0.517247
50 1 0.255674 0.747451 0.503922
54 1 0.375 0.875 0.625
58 1 0.750328 0.757032 0.49374
59 1 0.875 0.875 0.625
49 1 0.243552 0.497392 0.751164
53 1 0.375 0.625 0.875
57 1 0.766117 0.486689 0.765023
61 1 0.875 0.625 0.875
48 1 0 0.75 0.75
52 1 0.125 0.875 0.875
56 1 0.497321 0.757593 0.758582
60 1 0.625 0.875 0.875
ITEM: TIMESTEP
1000
ITEM: NUMBER OF ATOMS
61
ITEM: BOX BOUNDS pp pp pp
0.0000000000000000e+00 1.0859999999999999e+01
0.0000000000000000e+00 1.0859999999999999e+01
0.0000000000000000e+00 1.0859999999999999e+01
ITEM: ATOMS id type xs ys zs
1 1 0 0 0
5 1 0.125 0.125 0.125
9 1 0.5 0 0
13 1 0.625 0.125 0.125
4 1 0.25 0.25 0
8 1 0.375 0.375 0.125
12 1 0.75 0.25 0
14 1 0.875 0.375 0.125
3 1 0.25 0 0.25
7 1 0.375 0.125 0.375
11 1 0.75 0 0.25
15 1 0.875 0.125 0.375
2 1 0 0.25 0.25
6 1 0.125 0.375 0.375
10 1 0.495584 0.249985 0.260651
16 1 0 0 0.5
20 1 0.125 0.125 0.625
24 1 0.5 0 0.5
28 1 0.625 0.125 0.625
19 1 0.266716 0.266445 0.498977
23 1 0.875 0.375 0.625
27 1 0.752275 0.266556 0.491043
18 1 0.25 0 0.75
22 1 0.375 0.125 0.875
26 1 0.75 0 0.75
30 1 0.875 0.125 0.875
17 1 0 0.25 0.75
21 1 0.125 0.375 0.875
25 1 0.493321 0.250362 0.756568
29 1 0.625 0.375 0.875
31 1 0 0.5 0
35 1 0.125 0.625 0.125
39 1 0.5 0.5 0
43 1 0.625 0.625 0.125
34 1 0.25 0.75 0
38 1 0.375 0.875 0.125
42 1 0.75 0.75 0
46 1 0.875 0.875 0.125
33 1 0.232833 0.503176 0.245488
37 1 0.371809 0.614016 0.375089
41 1 0.751117 0.488487 0.260419
45 1 0.875 0.625 0.375
32 1 0 0.75 0.25
36 1 0.125 0.875 0.375
40 1 0.502578 0.739868 0.243243
44 1 0.625 0.875 0.375
47 1 0 0.5 0.5
51 1 0.125 0.625 0.625
55 1 0.483586 0.487484 0.517105
50 1 0.256769 0.749551 0.507763
54 1 0.375 0.875 0.625
58 1 0.745197 0.759109 0.491407
59 1 0.875 0.875 0.625
49 1 0.240722 0.493867 0.74956
53 1 0.375 0.625 0.875
57 1 0.770948 0.486999 0.763821
61 1 0.875 0.625 0.875
48 1 0 0.75 0.75
52 1 0.125 0.875 0.875
56 1 0.500712 0.757972 0.759509
60 1 0.625 0.875 0.875
ITEM: TIMESTEP
1100
ITEM: NUMBER OF ATOMS
61
ITEM: BOX BOUNDS pp pp pp
0.0000000000000000e+00 1.0859999999999999e+01
0.0000000000000000e+00 1.0859999999999999e+01
0.0000000000000000e+00 1.0859999999999999e+01
ITEM: ATOMS id type xs ys zs
1 1 0 0 0
5 1 0.125 0.125 0.125
9 1 0.5 0 0
13 1 0.625 0.125 0.125
4 1 0.25 0.25 0
8 1 0.375 0.375 0.125
12 1 0.75 0.25 0
14 1 0.875 0.375 0.125
3 1 0.25 0 0.25
7 1 0.375 0.125 0.375
11 1 0.75 0 0.25
15 1 0.875 0.125 0.375
2 1 0 0.25 0.25
6 1 0.125 0.375 0.375
10 1 0.496248 0.250807 0.259364
16 1 0 0 0.5
20 1 0.125 0.125 0.625
24 1 0.5 0 0.5
28 1 0.625 0.125 0.625
19 1 0.268523 0.267605 0.502209
23 1 0.875 0.375 0.625
27 1 0.74987 0.265603 0.490643
18 1 0.25 0 0.75
22 1 0.375 0.125 0.875
26 1 0.75 0 0.75
30 1 0.875 0.125 0.875
17 1 0 0.25 0.75
21 1 0.125 0.375 0.875
25 1 0.493866 0.251345 0.754893
29 1 0.625 0.375 0.875
31 1 0 0.5 0
35 1 0.125 0.625 0.125
39 1 0.5 0.5 0
43 1 0.625 0.625 0.125
34 1 0.25 0.75 0
38 1 0.375 0.875 0.125
42 1 0.75 0.75 0
46 1 0.875 0.875 0.125
33 1 0.232825 0.504373 0.245161
37 1 0.36873 0.617625 0.368865
41 1 0.749802 0.488527 0.260676
45 1 0.875 0.625 0.375
32 1 0 0.75 0.25
36 1 0.125 0.875 0.375
40 1 0.499399 0.742677 0.244704
44 1 0.625 0.875 0.375
47 1 0 0.5 0.5
51 1 0.125 0.625 0.625
55 1 0.481493 0.490398 0.515351
50 1 0.254446 0.749951 0.506559
54 1 0.375 0.875 0.625
58 1 0.745197 0.757288 0.492829
59 1 0.875 0.875 0.625
49 1 0.242028 0.494203 0.747983
53 1 0.375 0.625 0.875
57 1 0.769963 0.487359 0.761611
61 1 0.875 0.625 0.875
48 1 0 0.75 0.75
52 1 0.125 0.875 0.875
56 1 0.500867 0.755772 0.756908
60 1 0.625 0.875 0.875
ITEM: TIMESTEP
1200
ITEM: NUMBER OF ATOMS
61
ITEM: BOX BOUNDS pp pp pp
0.0000000000000000e+00 1.0859999999999999e+01
0.0000000000000000e+00 1.0859999999999999e+01
0.0000000000000000e+00 1.0859999999999999e+01
ITEM: ATOMS id type xs ys zs
1 1 0 0 0
5 1 0.125 0.125 0.125
9 1 0.5 0 0
13 1 0.625 0.125 0.125
4 1 0.25 0.25 0
8 1 0.375 0.375 0.125
12 1 0.75 0.25 0
14 1 0.875 0.375 0.125
3 1 0.25 0 0.25
7 1 0.375 0.125 0.375
11 1 0.75 0 0.25
15 1 0.875 0.125 0.375
2 1 0 0.25 0.25
6 1 0.125 0.375 0.375
10 1 0.498955 0.252034 0.25343
16 1 0 0 0.5
20 1 0.125 0.125 0.625
24 1 0.5 0 0.5
28 1 0.625 0.125 0.625
19 1 0.265899 0.264785 0.505213
23 1 0.875 0.375 0.625
27 1 0.74633 0.259727 0.492562
18 1 0.25 0 0.75
22 1 0.375 0.125 0.875
26 1 0.75 0 0.75
30 1 0.875 0.125 0.875
17 1 0 0.25 0.75
21 1 0.125 0.375 0.875
25 1 0.497958 0.251819 0.750644
29 1 0.625 0.375 0.875
31 1 0 0.5 0
35 1 0.125 0.625 0.125
39 1 0.5 0.5 0
43 1 0.625 0.625 0.125
34 1 0.25 0.75 0
38 1 0.375 0.875 0.125
42 1 0.75 0.75 0
46 1 0.875 0.875 0.125
33 1 0.241034 0.500253 0.247105
37 1 0.366973 0.622437 0.365245
41 1 0.748018 0.492133 0.257732
45 1 0.875 0.625 0.375
32 1 0 0.75 0.25
36 1 0.125 0.875 0.375
40 1 0.495188 0.748653 0.249794
44 1 0.625 0.875 0.375
47 1 0 0.5 0.5
51 1 0.125 0.625 0.625
55 1 0.478105 0.49483 0.511452
50 1 0.249643 0.748812 0.500736
54 1 0.375 0.875 0.625
58 1 0.749916 0.752268 0.497444
59 1 0.875 0.875 0.625
49 1 0.247034 0.497964 0.747219
53 1 0.375 0.625 0.875
57 1 0.763005 0.488454 0.759328
61 1 0.875 0.625 0.875
48 1 0 0.75 0.75
52 1 0.125 0.875 0.875
56 1 0.498414 0.751773 0.751795
60 1 0.625 0.875 0.875
ITEM: TIMESTEP
1300
ITEM: NUMBER OF ATOMS
61
ITEM: BOX BOUNDS pp pp pp
0.0000000000000000e+00 1.0859999999999999e+01
0.0000000000000000e+00 1.0859999999999999e+01
0.0000000000000000e+00 1.0859999999999999e+01
ITEM: ATOMS id type xs ys zs
1 1 0 0 0
5 1 0.125 0.125 0.125
9 1 0.5 0 0
13 1 0.625 0.125 0.125
4 1 0.25 0.25 0
8 1 0.375 0.375 0.125
12 1 0.75 0.25 0
14 1 0.875 0.375 0.125
3 1 0.25 0 0.25
7 1 0.375 0.125 0.375
11 1 0.75 0 0.25
15 1 0.875 0.125 0.375
2 1 0 0.25 0.25
6 1 0.125 0.375 0.375
10 1 0.502137 0.252257 0.245437
16 1 0 0 0.5
20 1 0.125 0.125 0.625
24 1 0.5 0 0.5
28 1 0.625 0.125 0.625
19 1 0.258995 0.25816 0.507103
23 1 0.875 0.375 0.625
27 1 0.743431 0.250499 0.496871
18 1 0.25 0 0.75
22 1 0.375 0.125 0.875
26 1 0.75 0 0.75
30 1 0.875 0.125 0.875
17 1 0 0.25 0.75
21 1 0.125 0.375 0.875
25 1 0.50352 0.25122 0.746067
29 1 0.625 0.375 0.875
31 1 0 0.5 0
35 1 0.125 0.625 0.125
39 1 0.5 0.5 0
43 1 0.625 0.625 0.125
34 1 0.25 0.75 0
38 1 0.375 0.875 0.125
42 1 0.75 0.75 0
46 1 0.875 0.875 0.125
33 1 0.25259 0.49391 0.248551
37 1 0.366643 0.627217 0.366431
41 1 0.746548 0.498567 0.252084
45 1 0.875 0.625 0.375
32 1 0 0.75 0.25
36 1 0.125 0.875 0.375
40 1 0.493314 0.755123 0.254558
44 1 0.625 0.875 0.375
47 1 0 0.5 0.5
51 1 0.125 0.625 0.625
55 1 0.473694 0.50092 0.505639
50 1 0.244707 0.747671 0.493598
54 1 0.375 0.875 0.625
58 1 0.755963 0.746737 0.50271
59 1 0.875 0.875 0.625
49 1 0.253396 0.503178 0.748103
53 1 0.375 0.625 0.875
57 1 0.7529 0.491571 0.75669
61 1 0.875 0.625 0.875
48 1 0 0.75 0.75
52 1 0.125 0.875 0.875
56 1 0.495646 0.747699 0.746552
60 1 0.625 0.875 0.875
ITEM: TIMESTEP
1400
ITEM: NUMBER OF ATOMS
61
ITEM: BOX BOUNDS pp pp pp
0.0000000000000000e+00 1.0859999999999999e+01
0.0000000000000000e+00 1.0859999999999999e+01
0.0000000000000000e+00 1.0859999999999999e+01
ITEM: ATOMS id type xs ys zs
1 1 0 0 0
5 1 0.125 0.125 0.125
9 1 0.5 0 0
13 1 0.625 0.125 0.125
4 1 0.25 0.25 0
8 1 0.375 0.375 0.125
12 1 0.75 0.25 0
14 1 0.875 0.375 0.125
3 1 0.25 0 0.25
7 1 0.375 0.125 0.375
11 1 0.75 0 0.25
15 1 0.875 0.125 0.375
2 1 0 0.25 0.25
6 1 0.125 0.375 0.375
10 1 0.503896 0.250825 0.239037
16 1 0 0 0.5
20 1 0.125 0.125 0.625
24 1 0.5 0 0.5
28 1 0.625 0.125 0.625
19 1 0.249195 0.249 0.506858
23 1 0.875 0.375 0.625
27 1 0.743447 0.24114 0.502282
18 1 0.25 0 0.75
22 1 0.375 0.125 0.875
26 1 0.75 0 0.75
30 1 0.875 0.125 0.875
17 1 0 0.25 0.75
21 1 0.125 0.375 0.875
25 1 0.507724 0.249824 0.743791
29 1 0.625 0.375 0.875
31 1 0 0.5 0
35 1 0.125 0.625 0.125
39 1 0.5 0.5 0
43 1 0.625 0.625 0.125
34 1 0.25 0.75 0
38 1 0.375 0.875 0.125
42 1 0.75 0.75 0
46 1 0.875 0.875 0.125
33 1 0.260978 0.48984 0.249299
37 1 0.367443 0.631309 0.370697
41 1 0.746721 0.505828 0.245436
45 1 0.875 0.625 0.375
32 1 0 0.75 0.25
36 1 0.125 0.875 0.375
40 1 0.49498 0.759085 0.256274
44 1 0.625 0.875 0.375
47 1 0 0.5 0.5
51 1 0.125 0.625 0.625
55 1 0.469542 0.507512 0.499338
50 1 0.241556 0.747773 0.489513
54 1 0.375 0.875 0.625
58 1 0.759613 0.742992 0.506449
59 1 0.875 0.875 0.625
49 1 0.257889 0.507192 0.750128
53 1 0.375 0.625 0.875
57 1 0.743785 0.497268 0.752761
61 1 0.875 0.625 0.875
48 1 0 0.75 0.75
52 1 0.125 0.875 0.875
56 1 0.494639 0.74491 0.743243
60 1 0.625 0.875 0.875
ITEM: TIMESTEP
1500
ITEM: NUMBER OF ATOMS
61
ITEM: BOX BOUNDS pp pp pp
0.0000000000000000e+00 1.0859999999999999e+01
0.0000000000000000e+00 1.0859999999999999e+01
0.0000000000000000e+00 1.0859999999999999e+01
ITEM: ATOMS id type xs ys zs
1 1 0 0 0
5 1 0.125 0.125 0.125
9 1 0.5 0 0
13 1 0.625 0.125 0.125
4 1 0.25 0.25 0
8 1 0.375 0.375 0.125
12 1 0.75 0.25 0
14 1 0.875 0.375 0.125
3 1 0.25 0 0.25
7 1 0.375 0.125 0.375
11 1 0.75 0 0.25
15 1 0.875 0.125 0.375
2 1 0 0.25 0.25
6 1 0.125 0.375 0.375
10 1 0.502694 0.248429 0.237258
16 1 0 0 0.5
20 1 0.125 0.125 0.625
24 1 0.5 0 0.5
28 1 0.625 0.125 0.625
19 1 0.239712 0.240364 0.502902
23 1 0.875 0.375 0.625
27 1 0.748319 0.23562 0.50656
18 1 0.25 0 0.75
22 1 0.375 0.125 0.875
26 1 0.75 0 0.75
30 1 0.875 0.125 0.875
17 1 0 0.25 0.75
21 1 0.125 0.375 0.875
25 1 0.508449 0.248505 0.745455
29 1 0.625 0.375 0.875
31 1 0 0.5 0
35 1 0.125 0.625 0.125
39 1 0.5 0.5 0
43 1 0.625 0.625 0.125
34 1 0.25 0.75 0
38 1 0.375 0.875 0.125
42 1 0.75 0.75 0
46 1 0.875 0.875 0.125
33 1 0.262273 0.491247 0.251571
37 1 0.368272 0.635823 0.372746
41 1 0.750105 0.511078 0.240352
45 1 0.875 0.625 0.375
32 1 0 0.75 0.25
36 1 0.125 0.875 0.375
40 1 0.499009 0.758409 0.254332
44 1 0.625 0.875 0.375
47 1 0 0.5 0.5
51 1 0.125 0.625 0.625
55 1 0.467954 0.511838 0.495282
50 1 0.2409 0.749539 0.491586
54 1 0.375 0.875 0.625
58 1 0.758879 0.741979 0.507698
59 1 0.875 0.875 0.625
49 1 0.257923 0.50782 0.751739
53 1 0.375 0.625 0.875
57 1 0.738372 0.504439 0.7476
61 1 0.875 0.625 0.875
48 1 0 0.75 0.75
52 1 0.125 0.875 0.875
56 1 0.496159 0.744081 0.742829
60 1 0.625 0.875 0.875
ITEM: TIMESTEP
1600
ITEM: NUMBER OF ATOMS
61
ITEM: BOX BOUNDS pp pp pp
0.0000000000000000e+00 1.0859999999999999e+01
0.0000000000000000e+00 1.0859999999999999e+01
0.0000000000000000e+00 1.0859999999999999e+01
ITEM: ATOMS id type xs ys zs
1 1 0 0 0
5 1 0.125 0.125 0.125
9 1 0.5 0 0
13 1 0.625 0.125 0.125
4 1 0.25 0.25 0
8 1 0.375 0.375 0.125
12 1 0.75 0.25 0
14 1 0.875 0.375 0.125
3 1 0.25 0 0.25
7 1 0.375 0.125 0.375
11 1 0.75 0 0.25
15 1 0.875 0.125 0.375
2 1 0 0.25 0.25
6 1 0.125 0.375 0.375
10 1 0.498247 0.24596 0.240874
16 1 0 0 0.5
20 1 0.125 0.125 0.625
24 1 0.5 0 0.5
28 1 0.625 0.125 0.625
19 1 0.234032 0.235428 0.494017
23 1 0.875 0.375 0.625
27 1 0.757689 0.235904 0.508839
18 1 0.25 0 0.75
22 1 0.375 0.125 0.875
26 1 0.75 0 0.75
30 1 0.875 0.125 0.875
17 1 0 0.25 0.75
21 1 0.125 0.375 0.875
25 1 0.505524 0.247604 0.750712
29 1 0.625 0.375 0.875
31 1 0 0.5 0
35 1 0.125 0.625 0.125
39 1 0.5 0.5 0
43 1 0.625 0.625 0.125
34 1 0.25 0.75 0
38 1 0.375 0.875 0.125
42 1 0.75 0.75 0
46 1 0.875 0.875 0.125
33 1 0.256757 0.497732 0.254969
37 1 0.368066 0.64147 0.370114
41 1 0.756983 0.51252 0.238455
45 1 0.875 0.625 0.375
32 1 0 0.75 0.25
36 1 0.125 0.875 0.375
40 1 0.503663 0.753688 0.249371
44 1 0.625 0.875 0.375
47 1 0 0.5 0.5
51 1 0.125 0.625 0.625
55 1 0.47018 0.512116 0.495037
50 1 0.24299 0.753075 0.499506
54 1 0.375 0.875 0.625
58 1 0.753921 0.743849 0.506139
59 1 0.875 0.875 0.625
49 1 0.253018 0.504687 0.752198
53 1 0.375 0.625 0.875
57 1 0.737257 0.510816 0.742613
61 1 0.875 0.625 0.875
48 1 0 0.75 0.75
52 1 0.125 0.875 0.875
56 1 0.499636 0.745461 0.745322
60 1 0.625 0.875 0.875
ITEM: TIMESTEP
1700
ITEM: NUMBER OF ATOMS
61
ITEM: BOX BOUNDS pp pp pp
0.0000000000000000e+00 1.0859999999999999e+01
0.0000000000000000e+00 1.0859999999999999e+01
0.0000000000000000e+00 1.0859999999999999e+01
ITEM: ATOMS id type xs ys zs
1 1 0 0 0
5 1 0.125 0.125 0.125
9 1 0.5 0 0
13 1 0.625 0.125 0.125
4 1 0.25 0.25 0
8 1 0.375 0.375 0.125
12 1 0.75 0.25 0
14 1 0.875 0.375 0.125
3 1 0.25 0 0.25
7 1 0.375 0.125 0.375
11 1 0.75 0 0.25
15 1 0.875 0.125 0.375
2 1 0 0.25 0.25
6 1 0.125 0.375 0.375
10 1 0.492365 0.243988 0.247696
16 1 0 0 0.5
20 1 0.125 0.125 0.625
24 1 0.5 0 0.5
28 1 0.625 0.125 0.625
19 1 0.232906 0.234356 0.48217
23 1 0.875 0.375 0.625
27 1 0.767475 0.240358 0.510235
18 1 0.25 0 0.75
22 1 0.375 0.125 0.875
26 1 0.75 0 0.75
30 1 0.875 0.125 0.875
17 1 0 0.25 0.75
21 1 0.125 0.375 0.875
25 1 0.500919 0.246859 0.757101
29 1 0.625 0.375 0.875
31 1 0 0.5 0
35 1 0.125 0.625 0.125
39 1 0.5 0.5 0
43 1 0.625 0.625 0.125
34 1 0.25 0.75 0
38 1 0.375 0.875 0.125
42 1 0.75 0.75 0
46 1 0.875 0.875 0.125
33 1 0.247813 0.505909 0.256391
37 1 0.367253 0.646145 0.366067
41 1 0.764717 0.510817 0.239161
45 1 0.875 0.625 0.375
32 1 0 0.75 0.25
36 1 0.125 0.875 0.375
40 1 0.50737 0.748848 0.243452
44 1 0.625 0.875 0.375
47 1 0 0.5 0.5
51 1 0.125 0.625 0.625
55 1 0.474554 0.510044 0.49686
50 1 0.247202 0.757597 0.509268
54 1 0.375 0.875 0.625
58 1 0.746796 0.74813 0.502025
59 1 0.875 0.875 0.625
49 1 0.245436 0.499745 0.752078
53 1 0.375 0.625 0.875
57 1 0.739793 0.514303 0.739326
61 1 0.875 0.625 0.875
48 1 0 0.75 0.75
52 1 0.125 0.875 0.875
56 1 0.503448 0.748736 0.749829
60 1 0.625 0.875 0.875
ITEM: TIMESTEP
1800
ITEM: NUMBER OF ATOMS
61
ITEM: BOX BOUNDS pp pp pp
0.0000000000000000e+00 1.0859999999999999e+01
0.0000000000000000e+00 1.0859999999999999e+01
0.0000000000000000e+00 1.0859999999999999e+01
ITEM: ATOMS id type xs ys zs
1 1 0 0 0
5 1 0.125 0.125 0.125
9 1 0.5 0 0
13 1 0.625 0.125 0.125
4 1 0.25 0.25 0
8 1 0.375 0.375 0.125
12 1 0.75 0.25 0
14 1 0.875 0.375 0.125
3 1 0.25 0 0.25
7 1 0.375 0.125 0.375
11 1 0.75 0 0.25
15 1 0.875 0.125 0.375
2 1 0 0.25 0.25
6 1 0.125 0.375 0.375
10 1 0.488495 0.243584 0.253501
16 1 0 0 0.5
20 1 0.125 0.125 0.625
24 1 0.5 0 0.5
28 1 0.625 0.125 0.625
19 1 0.234315 0.234672 0.473013
23 1 0.875 0.375 0.625
27 1 0.77216 0.244897 0.511076
18 1 0.25 0 0.75
22 1 0.375 0.125 0.875
26 1 0.75 0 0.75
30 1 0.875 0.125 0.875
17 1 0 0.25 0.75
21 1 0.125 0.375 0.875
25 1 0.497617 0.246443 0.761223
29 1 0.625 0.375 0.875
31 1 0 0.5 0
35 1 0.125 0.625 0.125
39 1 0.5 0.5 0
43 1 0.625 0.625 0.125
34 1 0.25 0.75 0
38 1 0.375 0.875 0.125
42 1 0.75 0.75 0
46 1 0.875 0.875 0.125
33 1 0.240101 0.512178 0.254465
37 1 0.366436 0.647894 0.364529