ITEM: TIMESTEP
0
ITEM: NUMBER OF ATOMS
61
ITEM: BOX BOUNDS pp pp pp
0.0000000000000000e+00 1.0859999999999999e+01
0.0000000000000000e+00 1.0859999999999999e+01
0.0000000000000000e+00 1.0859999999999999e+01
ITEM: ATOMS id type xs ys zs
1 1 0 0 0
5 1 0.125 0.125 0.125
9 1 0.5 0 0
13 1 0.625 0.125 0.125
4 1 0.25 0.25 0
8 1 0.375 0.375 0.125
12 1 0.75 0.25 0
16 1 0.875 0.375 0.125
3 1 0.25 0 0.25
7 1 0.375 0.125 0.375
11 1 0.75 0 0.25
15 1 0.875 0.125 0.375
2 1 0 0.25 0.25
6 1 0.125 0.375 0.375
10 1 0.5 0.25 0.25
14 1 0.625 0.375 0.375
17 1 0 0 0.5
21 1 0.125 0.125 0.625
25 1 0.5 0 0.5
29 1 0.625 0.125 0.625
24 1 0.375 0.375 0.625
20 1 0.875 0.375 0.625
28 1 0.75 0.25 0.5
19 1 0.25 0 0.75
23 1 0.375 0.125 0.875
27 1 0.75 0 0.75
31 1 0.875 0.125 0.875
18 1 0 0.25 0.75
22 1 0.125 0.375 0.875
26 1 0.5 0.25 0.75
30 1 0.625 0.375 0.875
32 1 0 0.5 0
36 1 0.125 0.625 0.125
40 1 0.5 0.5 0
44 1 0.625 0.625 0.125
35 1 0.25 0.75 0
39 1 0.375 0.875 0.125
43 1 0.75 0.75 0
47 1 0.875 0.875 0.125
34 1 0.25 0.5 0.25
38 1 0.375 0.625 0.375
42 1 0.75 0.5 0.25
46 1 0.875 0.625 0.375
33 1 0 0.75 0.25
37 1 0.125 0.875 0.375
41 1 0.5 0.75 0.25
45 1 0.625 0.875 0.375
48 1 0 0.5 0.5
52 1 0.125 0.625 0.625
51 1 0.25 0.75 0.5
55 1 0.375 0.875 0.625
59 1 0.75 0.75 0.5
60 1 0.875 0.875 0.625
50 1 0.25 0.5 0.75
54 1 0.375 0.625 0.875
56 1 0.875 0.625 0.875
58 1 0.75 0.5 0.75
49 1 0 0.75 0.75
53 1 0.125 0.875 0.875
57 1 0.5 0.75 0.75
61 1 0.625 0.875 0.875
ITEM: TIMESTEP
100
ITEM: NUMBER OF ATOMS
61
ITEM: BOX BOUNDS pp pp pp
0.0000000000000000e+00 1.0859999999999999e+01
0.0000000000000000e+00 1.0859999999999999e+01
0.0000000000000000e+00 1.0859999999999999e+01
ITEM: ATOMS id type xs ys zs
1 1 0 0 0
5 1 0.125 0.125 0.125
9 1 0.5 0 0
13 1 0.625 0.125 0.125
4 1 0.25 0.25 0
8 1 0.375 0.375 0.125
12 1 0.75 0.25 0
16 1 0.875 0.375 0.125
3 1 0.25 0 0.25
7 1 0.375 0.125 0.375
11 1 0.75 0 0.25
15 1 0.875 0.125 0.375
2 1 0 0.25 0.25
6 1 0.125 0.375 0.375
10 1 0.48993 0.251603 0.25402
14 1 0.62724 0.383523 0.377785
17 1 0 0 0.5
21 1 0.125 0.125 0.625
25 1 0.5 0 0.5
29 1 0.625 0.125 0.625
24 1 0.380534 0.363832 0.623838
20 1 0.875 0.375 0.625
28 1 0.750388 0.245668 0.478394
19 1 0.25 0 0.75
23 1 0.375 0.125 0.875
27 1 0.75 0 0.75
31 1 0.875 0.125 0.875
18 1 0 0.25 0.75
22 1 0.125 0.375 0.875
26 1 0.504613 0.248901 0.753929
30 1 0.625 0.375 0.875
32 1 0 0.5 0
36 1 0.125 0.625 0.125
40 1 0.5 0.5 0
44 1 0.625 0.625 0.125
35 1 0.25 0.75 0
39 1 0.375 0.875 0.125
43 1 0.75 0.75 0
47 1 0.875 0.875 0.125
34 1 0.246091 0.486373 0.238063
38 1 0.380006 0.633561 0.374093
42 1 0.756363 0.489834 0.262914
46 1 0.875 0.625 0.375
33 1 0 0.75 0.25
37 1 0.125 0.875 0.375
41 1 0.508785 0.754303 0.251056
45 1 0.625 0.875 0.375
48 1 0 0.5 0.5
52 1 0.125 0.625 0.625
51 1 0.253553 0.751758 0.51181
55 1 0.375 0.875 0.625
59 1 0.748465 0.756195 0.492667
60 1 0.875 0.875 0.625
50 1 0.251056 0.502962 0.75826
54 1 0.375 0.625 0.875
56 1 0.875 0.625 0.875
58 1 0.735834 0.501161 0.75303
49 1 0 0.75 0.75
53 1 0.125 0.875 0.875
57 1 0.491957 0.756287 0.745259
61 1 0.625 0.875 0.875
ITEM: TIMESTEP
200
ITEM: NUMBER OF ATOMS
61
ITEM: BOX BOUNDS pp pp pp
0.0000000000000000e+00 1.0859999999999999e+01
0.0000000000000000e+00 1.0859999999999999e+01
0.0000000000000000e+00 1.0859999999999999e+01
ITEM: ATOMS id type xs ys zs
1 1 0 0 0
5 1 0.125 0.125 0.125
9 1 0.5 0 0
13 1 0.625 0.125 0.125
4 1 0.25 0.25 0
8 1 0.375 0.375 0.125
12 1 0.75 0.25 0
16 1 0.875 0.375 0.125
3 1 0.25 0 0.25
7 1 0.375 0.125 0.375
11 1 0.75 0 0.25
15 1 0.875 0.125 0.375
2 1 0 0.25 0.25
6 1 0.125 0.375 0.375
10 1 0.486159 0.254577 0.257314
14 1 0.62401 0.38747 0.380864
17 1 0 0 0.5
21 1 0.125 0.125 0.625
25 1 0.5 0 0.5
29 1 0.625 0.125 0.625
24 1 0.383728 0.355677 0.624994
20 1 0.875 0.375 0.625
28 1 0.748137 0.245027 0.467697
19 1 0.25 0 0.75
23 1 0.375 0.125 0.875
27 1 0.75 0 0.75
31 1 0.875 0.125 0.875
18 1 0 0.25 0.75
22 1 0.125 0.375 0.875
26 1 0.507801 0.246901 0.756456
30 1 0.625 0.375 0.875
32 1 0 0.5 0
36 1 0.125 0.625 0.125
40 1 0.5 0.5 0
44 1 0.625 0.625 0.125
35 1 0.25 0.75 0
39 1 0.375 0.875 0.125
43 1 0.75 0.75 0
47 1 0.875 0.875 0.125
34 1 0.243204 0.481656 0.234169
38 1 0.38031 0.638663 0.370648
42 1 0.762223 0.485647 0.268474
46 1 0.875 0.625 0.375
33 1 0 0.75 0.25
37 1 0.125 0.875 0.375
41 1 0.513373 0.757038 0.250128
45 1 0.625 0.875 0.375
48 1 0 0.5 0.5
52 1 0.125 0.625 0.625
51 1 0.255208 0.752106 0.516555
55 1 0.375 0.875 0.625
59 1 0.74994 0.760329 0.487951
60 1 0.875 0.875 0.625
50 1 0.25224 0.502421 0.760375
54 1 0.375 0.625 0.875
56 1 0.875 0.625 0.875
58 1 0.727643 0.503139 0.753706
49 1 0 0.75 0.75
53 1 0.125 0.875 0.875
57 1 0.487499 0.759924 0.745155
61 1 0.625 0.875 0.875
ITEM: TIMESTEP
300
ITEM: NUMBER OF ATOMS
61
ITEM: BOX BOUNDS pp pp pp
0.0000000000000000e+00 1.0859999999999999e+01
0.0000000000000000e+00 1.0859999999999999e+01
0.0000000000000000e+00 1.0859999999999999e+01
ITEM: ATOMS id type xs ys zs
1 1 0 0 0
5 1 0.125 0.125 0.125
9 1 0.5 0 0
13 1 0.625 0.125 0.125
4 1 0.25 0.25 0
8 1 0.375 0.375 0.125
12 1 0.75 0.25 0
16 1 0.875 0.375 0.125
3 1 0.25 0 0.25
7 1 0.375 0.125 0.375
11 1 0.75 0 0.25
15 1 0.875 0.125 0.375
2 1 0 0.25 0.25
6 1 0.125 0.375 0.375
10 1 0.490627 0.258482 0.25902
14 1 0.613965 0.387979 0.383854
17 1 0 0 0.5
21 1 0.125 0.125 0.625
25 1 0.5 0 0.5
29 1 0.625 0.125 0.625
24 1 0.38354 0.351821 0.628309
20 1 0.875 0.375 0.625
28 1 0.742597 0.24926 0.471712
19 1 0.25 0 0.75
23 1 0.375 0.125 0.875
27 1 0.75 0 0.75
31 1 0.875 0.125 0.875
18 1 0 0.25 0.75
22 1 0.125 0.375 0.875
26 1 0.509045 0.243553 0.757584
30 1 0.625 0.375 0.875
32 1 0 0.5 0
36 1 0.125 0.625 0.125
40 1 0.5 0.5 0
44 1 0.625 0.625 0.125
35 1 0.25 0.75 0
39 1 0.375 0.875 0.125
43 1 0.75 0.75 0
47 1 0.875 0.875 0.125
34 1 0.242471 0.489709 0.240966
38 1 0.37358 0.638046 0.363331
42 1 0.765157 0.487804 0.265184
46 1 0.875 0.625 0.375
33 1 0 0.75 0.25
37 1 0.125 0.875 0.375
41 1 0.511796 0.757269 0.246397
45 1 0.625 0.875 0.375
48 1 0 0.5 0.5
52 1 0.125 0.625 0.625
51 1 0.253918 0.750535 0.511559
55 1 0.375 0.875 0.625
59 1 0.755262 0.760848 0.487622
60 1 0.875 0.875 0.625
50 1 0.253291 0.497796 0.754741
54 1 0.375 0.625 0.875
56 1 0.875 0.625 0.875
58 1 0.727825 0.506705 0.750914
49 1 0 0.75 0.75
53 1 0.125 0.875 0.875
57 1 0.48881 0.759191 0.751321
61 1 0.625 0.875 0.875
ITEM: TIMESTEP
400
ITEM: NUMBER OF ATOMS
61
ITEM: BOX BOUNDS pp pp pp
0.0000000000000000e+00 1.0859999999999999e+01
0.0000000000000000e+00 1.0859999999999999e+01
0.0000000000000000e+00 1.0859999999999999e+01
ITEM: ATOMS id type xs ys zs
1 1 0 0 0
5 1 0.125 0.125 0.125
9 1 0.5 0 0
13 1 0.625 0.125 0.125
4 1 0.25 0.25 0
8 1 0.375 0.375 0.125
12 1 0.75 0.25 0
16 1 0.875 0.375 0.125
3 1 0.25 0 0.25
7 1 0.375 0.125 0.375
11 1 0.75 0 0.25
15 1 0.875 0.125 0.375
2 1 0 0.25 0.25
6 1 0.125 0.375 0.375
10 1 0.499705 0.260753 0.258513
14 1 0.602281 0.388667 0.384502
17 1 0 0 0.5
21 1 0.125 0.125 0.625
25 1 0.5 0 0.5
29 1 0.625 0.125 0.625
24 1 0.380084 0.351995 0.632776
20 1 0.875 0.375 0.625
28 1 0.737147 0.255253 0.487124
19 1 0.25 0 0.75
23 1 0.375 0.125 0.875
27 1 0.75 0 0.75
31 1 0.875 0.125 0.875
18 1 0 0.25 0.75
22 1 0.125 0.375 0.875
26 1 0.508484 0.240067 0.757754
30 1 0.625 0.375 0.875
32 1 0 0.5 0
36 1 0.125 0.625 0.125
40 1 0.5 0.5 0
44 1 0.625 0.625 0.125
35 1 0.25 0.75 0
39 1 0.375 0.875 0.125
43 1 0.75 0.75 0
47 1 0.875 0.875 0.125
34 1 0.244668 0.5034 0.251998
38 1 0.363686 0.635455 0.35534
42 1 0.760448 0.493503 0.257295
46 1 0.875 0.625 0.375
33 1 0 0.75 0.25
37 1 0.125 0.875 0.375
41 1 0.505114 0.755097 0.24198
45 1 0.625 0.875 0.375
48 1 0 0.5 0.5
52 1 0.125 0.625 0.625
51 1 0.250534 0.748386 0.499535
55 1 0.375 0.875 0.625
59 1 0.761911 0.75854 0.490761
60 1 0.875 0.875 0.625
50 1 0.254619 0.491223 0.744446
54 1 0.375 0.625 0.875
56 1 0.875 0.625 0.875
58 1 0.735457 0.510267 0.746158
49 1 0 0.75 0.75
53 1 0.125 0.875 0.875
57 1 0.494156 0.7557 0.760541
61 1 0.625 0.875 0.875
ITEM: TIMESTEP
500
ITEM: NUMBER OF ATOMS
61
ITEM: BOX BOUNDS pp pp pp
0.0000000000000000e+00 1.0859999999999999e+01
0.0000000000000000e+00 1.0859999999999999e+01
0.0000000000000000e+00 1.0859999999999999e+01
ITEM: ATOMS id type xs ys zs
1 1 0 0 0
5 1 0.125 0.125 0.125
9 1 0.5 0 0
13 1 0.625 0.125 0.125
4 1 0.25 0.25 0
8 1 0.375 0.375 0.125
12 1 0.75 0.25 0
16 1 0.875 0.375 0.125
3 1 0.25 0 0.25
7 1 0.375 0.125 0.375
11 1 0.75 0 0.25
15 1 0.875 0.125 0.375
2 1 0 0.25 0.25
6 1 0.125 0.375 0.375
10 1 0.506749 0.258127 0.254376
14 1 0.595423 0.391442 0.384215
17 1 0 0 0.5
21 1 0.125 0.125 0.625
25 1 0.5 0 0.5
29 1 0.625 0.125 0.625
24 1 0.375163 0.354039 0.636429
20 1 0.875 0.375 0.625
28 1 0.734424 0.261053 0.507363
19 1 0.25 0 0.75
23 1 0.375 0.125 0.875
27 1 0.75 0 0.75
31 1 0.875 0.125 0.875
18 1 0 0.25 0.75
22 1 0.125 0.375 0.875
26 1 0.506597 0.238615 0.75726
30 1 0.625 0.375 0.875
32 1 0 0.5 0
36 1 0.125 0.625 0.125
40 1 0.5 0.5 0
44 1 0.625 0.625 0.125
35 1 0.25 0.75 0
39 1 0.375 0.875 0.125
43 1 0.75 0.75 0
47 1 0.875 0.875 0.125
34 1 0.2467 0.512598 0.258808
38 1 0.357047 0.635682 0.35124
42 1 0.748116 0.501266 0.248783
46 1 0.875 0.625 0.375
33 1 0 0.75 0.25
37 1 0.125 0.875 0.375
41 1 0.496994 0.751353 0.24017
45 1 0.625 0.875 0.375
48 1 0 0.5 0.5
52 1 0.125 0.625 0.625
51 1 0.246544 0.747388 0.487192
55 1 0.375 0.875 0.625
59 1 0.765541 0.755317 0.495018
60 1 0.875 0.875 0.625
50 1 0.255298 0.486432 0.735373
54 1 0.375 0.625 0.875
56 1 0.875 0.625 0.875
58 1 0.747642 0.511281 0.741837
49 1 0 0.75 0.75
53 1 0.125 0.875 0.875
57 1 0.499915 0.751954 0.766915
61 1 0.625 0.875 0.875
ITEM: TIMESTEP
600
ITEM: NUMBER OF ATOMS
61
ITEM: BOX BOUNDS pp pp pp
0.0000000000000000e+00 1.0859999999999999e+01
0.0000000000000000e+00 1.0859999999999999e+01
0.0000000000000000e+00 1.0859999999999999e+01
ITEM: ATOMS id type xs ys zs
1 1 0 0 0
5 1 0.125 0.125 0.125
9 1 0.5 0 0
13 1 0.625 0.125 0.125
4 1 0.25 0.25 0
8 1 0.375 0.375 0.125
12 1 0.75 0.25 0
16 1 0.875 0.375 0.125
3 1 0.25 0 0.25
7 1 0.375 0.125 0.375
11 1 0.75 0 0.25
15 1 0.875 0.125 0.375
2 1 0 0.25 0.25
6 1 0.125 0.375 0.375
10 1 0.508478 0.251242 0.247817
14 1 0.595991 0.395539 0.384771
17 1 0 0 0.5
21 1 0.125 0.125 0.625
25 1 0.5 0 0.5
29 1 0.625 0.125 0.625
24 1 0.37213 0.354196 0.636485
20 1 0.875 0.375 0.625
28 1 0.734374 0.266307 0.522991
19 1 0.25 0 0.75
23 1 0.375 0.125 0.875
27 1 0.75 0 0.75
31 1 0.875 0.125 0.875
18 1 0 0.25 0.75
22 1 0.125 0.375 0.875
26 1 0.504084 0.240572 0.756114
30 1 0.625 0.375 0.875
32 1 0 0.5 0
36 1 0.125 0.625 0.125
40 1 0.5 0.5 0
44 1 0.625 0.625 0.125
35 1 0.25 0.75 0
39 1 0.375 0.875 0.125
43 1 0.75 0.75 0
47 1 0.875 0.875 0.125
34 1 0.242847 0.508232 0.254616
38 1 0.36023 0.642291 0.355512
42 1 0.733795 0.50799 0.243601
46 1 0.875 0.625 0.375
33 1 0 0.75 0.25
37 1 0.125 0.875 0.375
41 1 0.491786 0.747752 0.242055
45 1 0.625 0.875 0.375
48 1 0 0.5 0.5
52 1 0.125 0.625 0.625
51 1 0.243085 0.748317 0.4815
55 1 0.375 0.875 0.625
59 1 0.763422 0.752433 0.498559
60 1 0.875 0.875 0.625
50 1 0.25258 0.487466 0.732867
54 1 0.375 0.625 0.875
56 1 0.875 0.625 0.875
58 1 0.760368 0.508654 0.739765
49 1 0 0.75 0.75
53 1 0.125 0.875 0.875
57 1 0.503436 0.74895 0.766387
61 1 0.625 0.875 0.875
ITEM: TIMESTEP
700
ITEM: NUMBER OF ATOMS
61
ITEM: BOX BOUNDS pp pp pp
0.0000000000000000e+00 1.0859999999999999e+01
0.0000000000000000e+00 1.0859999999999999e+01
0.0000000000000000e+00 1.0859999999999999e+01
ITEM: ATOMS id type xs ys zs
1 1 0 0 0
5 1 0.125 0.125 0.125
9 1 0.5 0 0
13 1 0.625 0.125 0.125
4 1 0.25 0.25 0
8 1 0.375 0.375 0.125
12 1 0.75 0.25 0
16 1 0.875 0.375 0.125
3 1 0.25 0 0.25
7 1 0.375 0.125 0.375
11 1 0.75 0 0.25
15 1 0.875 0.125 0.375
2 1 0 0.25 0.25
6 1 0.125 0.375 0.375
10 1 0.50481 0.244966 0.243702
14 1 0.602245 0.397836 0.385221
17 1 0 0 0.5
21 1 0.125 0.125 0.625
25 1 0.5 0 0.5
29 1 0.625 0.125 0.625
24 1 0.371006 0.352422 0.632239
20 1 0.875 0.375 0.625
28 1 0.736512 0.267966 0.523574
19 1 0.25 0 0.75
23 1 0.375 0.125 0.875
27 1 0.75 0 0.75
31 1 0.875 0.125 0.875
18 1 0 0.25 0.75
22 1 0.125 0.375 0.875
26 1 0.501996 0.245204 0.754467
30 1 0.625 0.375 0.875
32 1 0 0.5 0
36 1 0.125 0.625 0.125
40 1 0.5 0.5 0
44 1 0.625 0.625 0.125
35 1 0.25 0.75 0
39 1 0.375 0.875 0.125
43 1 0.75 0.75 0
47 1 0.875 0.875 0.125
34 1 0.23984 0.496614 0.245154
38 1 0.366508 0.644816 0.363698
42 1 0.725787 0.508185 0.246365
46 1 0.875 0.625 0.375
33 1 0 0.75 0.25
37 1 0.125 0.875 0.375
41 1 0.493261 0.747855 0.245197
45 1 0.625 0.875 0.375
48 1 0 0.5 0.5
52 1 0.125 0.625 0.625
51 1 0.241337 0.751329 0.486928
55 1 0.375 0.875 0.625
59 1 0.755954 0.75032 0.50068
60 1 0.875 0.875 0.625
50 1 0.247253 0.494104 0.738254
54 1 0.375 0.625 0.875
56 1 0.875 0.625 0.875
58 1 0.76881 0.503554 0.741458
49 1 0 0.75 0.75
53 1 0.125 0.875 0.875
57 1 0.503891 0.747031 0.758605
61 1 0.625 0.875 0.875
ITEM: TIMESTEP
800
ITEM: NUMBER OF ATOMS
61
ITEM: BOX BOUNDS pp pp pp
0.0000000000000000e+00 1.0859999999999999e+01
0.0000000000000000e+00 1.0859999999999999e+01
0.0000000000000000e+00 1.0859999999999999e+01
ITEM: ATOMS id type xs ys zs
1 1 0 0 0
5 1 0.125 0.125 0.125
9 1 0.5 0 0
13 1 0.625 0.125 0.125
4 1 0.25 0.25 0
8 1 0.375 0.375 0.125
12 1 0.75 0.25 0
16 1 0.875 0.375 0.125
3 1 0.25 0 0.25
7 1 0.375 0.125 0.375
11 1 0.75 0 0.25
15 1 0.875 0.125 0.375
2 1 0 0.25 0.25
6 1 0.125 0.375 0.375
10 1 0.4971 0.243184 0.245195
14 1 0.610481 0.395205 0.385175
17 1 0 0 0.5
21 1 0.125 0.125 0.625
25 1 0.5 0 0.5
29 1 0.625 0.125 0.625
24 1 0.368315 0.352743 0.625785
20 1 0.875 0.375 0.625
28 1 0.739575 0.264212 0.508216
19 1 0.25 0 0.75
23 1 0.375 0.125 0.875
27 1 0.75 0 0.75
31 1 0.875 0.125 0.875
18 1 0 0.25 0.75
22 1 0.125 0.375 0.875
26 1 0.501092 0.249912 0.752644
30 1 0.625 0.375 0.875
32 1 0 0.5 0
36 1 0.125 0.625 0.125
40 1 0.5 0.5 0
44 1 0.625 0.625 0.125
35 1 0.25 0.75 0
39 1 0.375 0.875 0.125
43 1 0.75 0.75 0
47 1 0.875 0.875 0.125
34 1 0.24231 0.485813 0.237657
38 1 0.369828 0.638232 0.371967
42 1 0.729268 0.501572 0.256129
46 1 0.875 0.625 0.375
33 1 0 0.75 0.25
37 1 0.125 0.875 0.375
41 1 0.501084 0.752697 0.247906
45 1 0.625 0.875 0.375
48 1 0 0.5 0.5
52 1 0.125 0.625 0.625
51 1 0.242996 0.755076 0.501552
55 1 0.375 0.875 0.625
59 1 0.746094 0.748996 0.501494
60 1 0.875 0.875 0.625
50 1 0.244204 0.501755 0.748777
54 1 0.375 0.625 0.875
56 1 0.875 0.625 0.875
58 1 0.769271 0.49782 0.748203
49 1 0 0.75 0.75
53 1 0.125 0.875 0.875
57 1 0.501869 0.746683 0.746653
61 1 0.625 0.875 0.875
ITEM: TIMESTEP
900
ITEM: NUMBER OF ATOMS
61
ITEM: BOX BOUNDS pp pp pp
0.0000000000000000e+00 1.0859999999999999e+01
0.0000000000000000e+00 1.0859999999999999e+01
0.0000000000000000e+00 1.0859999999999999e+01
ITEM: ATOMS id type xs ys zs
1 1 0 0 0
5 1 0.125 0.125 0.125
9 1 0.5 0 0
13 1 0.625 0.125 0.125
4 1 0.25 0.25 0
8 1 0.375 0.375 0.125
12 1 0.75 0.25 0
16 1 0.875 0.375 0.125
3 1 0.25 0 0.25
7 1 0.375 0.125 0.375
11 1 0.75 0 0.25
15 1 0.875 0.125 0.375
2 1 0 0.25 0.25
6 1 0.125 0.375 0.375
10 1 0.48978 0.24655 0.251075
14 1 0.616178 0.385671 0.385095
17 1 0 0 0.5
21 1 0.125 0.125 0.625
25 1 0.5 0 0.5
29 1 0.625 0.125 0.625
24 1 0.362849 0.357156 0.620113
20 1 0.875 0.375 0.625
28 1 0.743828 0.256777 0.487277
19 1 0.25 0 0.75
23 1 0.375 0.125 0.875
27 1 0.75 0 0.75
31 1 0.875 0.125 0.875
18 1 0 0.25 0.75
22 1 0.125 0.375 0.875
26 1 0.500694 0.252615 0.750286
30 1 0.625 0.375 0.875
32 1 0 0.5 0
36 1 0.125 0.625 0.125
40 1 0.5 0.5 0
44 1 0.625 0.625 0.125
35 1 0.25 0.75 0
39 1 0.375 0.875 0.125
43 1 0.75 0.75 0
47 1 0.875 0.875 0.125
34 1 0.246981 0.481933 0.236689
38 1 0.370201 0.627017 0.37801
42 1 0.742877 0.495299 0.264598
46 1 0.875 0.625 0.375
33 1 0 0.75 0.25
37 1 0.125 0.875 0.375
41 1 0.509245 0.75779 0.250826
45 1 0.625 0.875 0.375
48 1 0 0.5 0.5
52 1 0.125 0.625 0.625
51 1 0.247708 0.757437 0.517072
55 1 0.375 0.875 0.625
59 1 0.737783 0.748123 0.50164
60 1 0.875 0.875 0.625
50 1 0.24544 0.506818 0.759344
54 1 0.375 0.625 0.875
56 1 0.875 0.625 0.875
58 1 0.761707 0.491885 0.758927
49 1 0 0.75 0.75
53 1 0.125 0.875 0.875
57 1 0.498967 0.747603 0.735608
61 1 0.625 0.875 0.875
ITEM: TIMESTEP
1000
ITEM: NUMBER OF ATOMS
61
ITEM: BOX BOUNDS pp pp pp
0.0000000000000000e+00 1.0859999999999999e+01
0.0000000000000000e+00 1.0859999999999999e+01
0.0000000000000000e+00 1.0859999999999999e+01
ITEM: ATOMS id type xs ys zs
1 1 0 0 0
5 1 0.125 0.125 0.125
9 1 0.5 0 0
13 1 0.625 0.125 0.125
4 1 0.25 0.25 0
8 1 0.375 0.375 0.125
12 1 0.75 0.25 0
16 1 0.875 0.375 0.125
3 1 0.25 0 0.25
7 1 0.375 0.125 0.375
11 1 0.75 0 0.25
15 1 0.875 0.125 0.375
2 1 0 0.25 0.25
6 1 0.125 0.375 0.375
10 1 0.488047 0.253553 0.257673
14 1 0.617313 0.37238 0.382723
17 1 0 0 0.5
21 1 0.125 0.125 0.625
25 1 0.5 0 0.5
29 1 0.625 0.125 0.625
24 1 0.355925 0.3651 0.617691
20 1 0.875 0.375 0.625
28 1 0.75038 0.246543 0.472247
19 1 0.25 0 0.75
23 1 0.375 0.125 0.875
27 1 0.75 0 0.75
31 1 0.875 0.125 0.875
18 1 0 0.25 0.75
22 1 0.125 0.375 0.875
26 1 0.499317 0.253325 0.746731
30 1 0.625 0.375 0.875
32 1 0 0.5 0
36 1 0.125 0.625 0.125
40 1 0.5 0.5 0
44 1 0.625 0.625 0.125
35 1 0.25 0.75 0
39 1 0.375 0.875 0.125
43 1 0.75 0.75 0
47 1 0.875 0.875 0.125
34 1 0.24985 0.487967 0.243675
38 1 0.369215 0.616346 0.381266
42 1 0.760227 0.492084 0.266586
46 1 0.875 0.625 0.375
33 1 0 0.75 0.25
37 1 0.125 0.875 0.375
41 1 0.511407 0.757898 0.252738
45 1 0.625 0.875 0.375
48 1 0 0.5 0.5
52 1 0.125 0.625 0.625
51 1 0.251514 0.755927 0.523765
55 1 0.375 0.875 0.625
59 1 0.734106 0.747227 0.501909
60 1 0.875 0.875 0.625
50 1 0.248286 0.507396 0.764414
54 1 0.375 0.625 0.875
56 1 0.875 0.625 0.875
58 1 0.751174 0.486582 0.768815
49 1 0 0.75 0.75
53 1 0.125 0.875 0.875
57 1 0.497428 0.748248 0.730038
61 1 0.625 0.875 0.875
ITEM: TIMESTEP
1100
ITEM: NUMBER OF ATOMS
61
ITEM: BOX BOUNDS pp pp pp
0.0000000000000000e+00 1.0859999999999999e+01
0.0000000000000000e+00 1.0859999999999999e+01
0.0000000000000000e+00 1.0859999999999999e+01
ITEM: ATOMS id type xs ys zs
1 1 0 0 0
5 1 0.125 0.125 0.125
9 1 0.5 0 0
13 1 0.625 0.125 0.125
4 1 0.25 0.25 0
8 1 0.375 0.375 0.125
12 1 0.75 0.25 0
16 1 0.875 0.375 0.125
3 1 0.25 0 0.25
7 1 0.375 0.125 0.375
11 1 0.75 0 0.25
15 1 0.875 0.125 0.375
2 1 0 0.25 0.25
6 1 0.125 0.375 0.375
10 1 0.491767 0.259954 0.261049
14 1 0.616835 0.362037 0.377174
17 1 0 0 0.5
21 1 0.125 0.125 0.625
25 1 0.5 0 0.5
29 1 0.625 0.125 0.625
24 1 0.349422 0.375098 0.619266
20 1 0.875 0.375 0.625
28 1 0.754936 0.239145 0.47176
19 1 0.25 0 0.75
23 1 0.375 0.125 0.875
27 1 0.75 0 0.75
31 1 0.875 0.125 0.875
18 1 0 0.25 0.75
22 1 0.125 0.375 0.875
26 1 0.496223 0.253451 0.742354
30 1 0.625 0.375 0.875
32 1 0 0.5 0
36 1 0.125 0.625 0.125
40 1 0.5 0.5 0
44 1 0.625 0.625 0.125
35 1 0.25 0.75 0
39 1 0.375 0.875 0.125
43 1 0.75 0.75 0
47 1 0.875 0.875 0.125
34 1 0.250664 0.500565 0.254802
38 1 0.369089 0.609801 0.383077
42 1 0.771787 0.489059 0.262412
46 1 0.875 0.625 0.375
33 1 0 0.75 0.25
37 1 0.125 0.875 0.375
41 1 0.50529 0.751397 0.2528
45 1 0.625 0.875 0.375
48 1 0 0.5 0.5
52 1 0.125 0.625 0.625
51 1 0.251878 0.749618 0.517188
55 1 0.375 0.875 0.625
59 1 0.736283 0.746241 0.502578
60 1 0.875 0.875 0.625
50 1 0.249576 0.503325 0.761399
54 1 0.375 0.625 0.875
56 1 0.875 0.625 0.875
58 1 0.745998 0.485835 0.771358
49 1 0 0.75 0.75
53 1 0.125 0.875 0.875
57 1 0.498704 0.747363 0.732276
61 1 0.625 0.875 0.875
ITEM: TIMESTEP
1200
ITEM: NUMBER OF ATOMS
61
ITEM: BOX BOUNDS pp pp pp
0.0000000000000000e+00 1.0859999999999999e+01
0.0000000000000000e+00 1.0859999999999999e+01
0.0000000000000000e+00 1.0859999999999999e+01
ITEM: ATOMS id type xs ys zs
1 1 0 0 0
5 1 0.125 0.125 0.125
9 1 0.5 0 0
13 1 0.625 0.125 0.125
4 1 0.25 0.25 0
8 1 0.375 0.375 0.125
12 1 0.75 0.25 0
16 1 0.875 0.375 0.125
3 1 0.25 0 0.25
7 1 0.375 0.125 0.375
11 1 0.75 0 0.25
15 1 0.875 0.125 0.375
2 1 0 0.25 0.25
6 1 0.125 0.375 0.375
10 1 0.494916 0.258881 0.256725
14 1 0.621965 0.360209 0.372663
17 1 0 0 0.5
21 1 0.125 0.125 0.625
25 1 0.5 0 0.5
29 1 0.625 0.125 0.625
24 1 0.346049 0.384081 0.622663
20 1 0.875 0.375 0.625
28 1 0.75239 0.240493 0.488798
19 1 0.25 0 0.75
23 1 0.375 0.125 0.875
27 1 0.75 0 0.75
31 1 0.875 0.125 0.875
18 1 0 0.25 0.75
22 1 0.125 0.375 0.875
26 1 0.49176 0.254405 0.73864
30 1 0.625 0.375 0.875
32 1 0 0.5 0
36 1 0.125 0.625 0.125
40 1 0.5 0.5 0
44 1 0.625 0.625 0.125
35 1 0.25 0.75 0
39 1 0.375 0.875 0.125
43 1 0.75 0.75 0
47 1 0.875 0.875 0.125
34 1 0.248884 0.510994 0.262832
38 1 0.372937 0.610543 0.38618
42 1 0.770501 0.486791 0.25507
46 1 0.875 0.625 0.375
33 1 0 0.75 0.25
37 1 0.125 0.875 0.375
41 1 0.494042 0.741189 0.252863
45 1 0.625 0.875 0.375
48 1 0 0.5 0.5
52 1 0.125 0.625 0.625
51 1 0.250714 0.741778 0.500423
55 1 0.375 0.875 0.625
59 1 0.743462 0.745697 0.503042
60 1 0.875 0.875 0.625
50 1 0.247882 0.498208 0.753364
54 1 0.375 0.625 0.875
56 1 0.875 0.625 0.875
58 1 0.749877 0.491816 0.763846
49 1 0 0.75 0.75
53 1 0.125 0.875 0.875
57 1 0.501972 0.74572 0.741568
61 1 0.625 0.875 0.875
ITEM: TIMESTEP
1300
ITEM: NUMBER OF ATOMS
61
ITEM: BOX BOUNDS pp pp pp
0.0000000000000000e+00 1.0859999999999999e+01
0.0000000000000000e+00 1.0859999999999999e+01
0.0000000000000000e+00 1.0859999999999999e+01
ITEM: ATOMS id type xs ys zs
1 1 0 0 0
5 1 0.125 0.125 0.125
9 1 0.5 0 0
13 1 0.625 0.125 0.125
4 1 0.25 0.25 0
8 1 0.375 0.375 0.125
12 1 0.75 0.25 0
16 1 0.875 0.375 0.125
3 1 0.25 0 0.25
7 1 0.375 0.125 0.375
11 1 0.75 0 0.25
15 1 0.875 0.125 0.375
2 1 0 0.25 0.25
6 1 0.125 0.375 0.375
10 1 0.496344 0.249713 0.246438
14 1 0.633616 0.365746 0.370244
17 1 0 0 0.5
21 1 0.125 0.125 0.625
25 1 0.5 0 0.5
29 1 0.625 0.125 0.625
24 1 0.349578 0.387188 0.622875
20 1 0.875 0.375 0.625
28 1 0.747002 0.247057 0.513835
19 1 0.25 0 0.75
23 1 0.375 0.125 0.875
27 1 0.75 0 0.75
31 1 0.875 0.125 0.875
18 1 0 0.25 0.75
22 1 0.125 0.375 0.875
26 1 0.487088 0.256425 0.737027
30 1 0.625 0.375 0.875
32 1 0 0.5 0
36 1 0.125 0.625 0.125
40 1 0.5 0.5 0
44 1 0.625 0.625 0.125
35 1 0.25 0.75 0
39 1 0.375 0.875 0.125
43 1 0.75 0.75 0
47 1 0.875 0.875 0.125
34 1 0.244786 0.514161 0.264304
38 1 0.38159 0.616398 0.39032
42 1 0.756627 0.489032 0.248922
46 1 0.875 0.625 0.375
33 1 0 0.75 0.25
37 1 0.125 0.875 0.375
41 1 0.483853 0.732297 0.253727
45 1 0.625 0.875 0.375
48 1 0 0.5 0.5
52 1 0.125 0.625 0.625
51 1 0.249097 0.737373 0.483396
55 1 0.375 0.875 0.625
59 1 0.753059 0.746468 0.502417
60 1 0.875 0.875 0.625
50 1 0.242191 0.498421 0.74815
54 1 0.375 0.625 0.875
56 1 0.875 0.625 0.875
58 1 0.757889 0.500637 0.750479
49 1 0 0.75 0.75
53 1 0.125 0.875 0.875
57 1 0.50499 0.745253 0.754393
61 1 0.625 0.875 0.875
ITEM: TIMESTEP
1400
ITEM: NUMBER OF ATOMS
61
ITEM: BOX BOUNDS pp pp pp
0.0000000000000000e+00 1.0859999999999999e+01
0.0000000000000000e+00 1.0859999999999999e+01
0.0000000000000000e+00 1.0859999999999999e+01
ITEM: ATOMS id type xs ys zs
1 1 0 0 0
5 1 0.125 0.125 0.125
9 1 0.5 0 0
13 1 0.625 0.125 0.125
4 1 0.25 0.25 0
8 1 0.375 0.375 0.125
12 1 0.75 0.25 0
16 1 0.875 0.375 0.125
3 1 0.25 0 0.25
7 1 0.375 0.125 0.375
11 1 0.75 0 0.25
15 1 0.875 0.125 0.375
2 1 0 0.25 0.25
6 1 0.125 0.375 0.375
10 1 0.498992 0.239403 0.238018
14 1 0.64446 0.370424 0.36877
17 1 0 0 0.5
21 1 0.125 0.125 0.625
25 1 0.5 0 0.5
29 1 0.625 0.125 0.625
24 1 0.359158 0.38451 0.619148
20 1 0.875 0.375 0.625
28 1 0.744275 0.255551 0.532371
19 1 0.25 0 0.75
23 1 0.375 0.125 0.875
27 1 0.75 0 0.75
31 1 0.875 0.125 0.875
18 1 0 0.25 0.75
22 1 0.125 0.375 0.875
26 1 0.484345 0.258231 0.738437
30 1 0.625 0.375 0.875
32 1 0 0.5 0
36 1 0.125 0.625 0.125
40 1 0.5 0.5 0
44 1 0.625 0.625 0.125
35 1 0.25 0.75 0
39 1 0.375 0.875 0.125
43 1 0.75 0.75 0
47 1 0.875 0.875 0.125
34 1 0.242692 0.511594 0.261924
38 1 0.391843 0.618455 0.393628
42 1 0.739207 0.49753 0.24401
46 1 0.875 0.625 0.375
33 1 0 0.75 0.25
37 1 0.125 0.875 0.375
41 1 0.480348 0.729963 0.25205
45 1 0.625 0.875 0.375
48 1 0 0.5 0.5
52 1 0.125 0.625 0.625
51 1 0.245415 0.738644 0.474759
55 1 0.375 0.875 0.625
59 1 0.761383 0.749236 0.50029
60 1 0.875 0.875 0.625
50 1 0.23613 0.504121 0.748424
54 1 0.375 0.625 0.875
56 1 0.875 0.625 0.875
58 1 0.763414 0.508492 0.737589
49 1 0 0.75 0.75
53 1 0.125 0.875 0.875
57 1 0.505722 0.746843 0.765341
61 1 0.625 0.875 0.875
ITEM: TIMESTEP
1500
ITEM: NUMBER OF ATOMS
61
ITEM: BOX BOUNDS pp pp pp
0.0000000000000000e+00 1.0859999999999999e+01
0.0000000000000000e+00 1.0859999999999999e+01
0.0000000000000000e+00 1.0859999999999999e+01
ITEM: ATOMS id type xs ys zs
1 1 0 0 0
5 1 0.125 0.125 0.125
9 1 0.5 0 0
13 1 0.625 0.125 0.125
4 1 0.25 0.25 0
8 1 0.375 0.375 0.125
12 1 0.75 0.25 0
16 1 0.875 0.375 0.125
3 1 0.25 0 0.25
7 1 0.375 0.125 0.375
11 1 0.75 0 0.25
15 1 0.875 0.125 0.375
2 1 0 0.25 0.25
6 1 0.125 0.375 0.375
10 1 0.50107 0.235146 0.237395
14 1 0.649047 0.368162 0.369414
17 1 0 0 0.5
21 1 0.125 0.125 0.625
25 1 0.5 0 0.5
29 1 0.625 0.125 0.625
24 1 0.369223 0.381249 0.615072
20 1 0.875 0.375 0.625
28 1 0.744451 0.261975 0.533643
19 1 0.25 0 0.75
23 1 0.375 0.125 0.875
27 1 0.75 0 0.75
31 1 0.875 0.125 0.875
18 1 0 0.25 0.75
22 1 0.125 0.375 0.875
26 1 0.486044 0.258092 0.743125
30 1 0.625 0.375 0.875
32 1 0 0.5 0
36 1 0.125 0.625 0.125
40 1 0.5 0.5 0
44 1 0.625 0.625 0.125
35 1 0.25 0.75 0
39 1 0.375 0.875 0.125
43 1 0.75 0.75 0
47 1 0.875 0.875 0.125
34 1 0.246192 0.505481 0.25829
38 1 0.399151 0.613985 0.397049
42 1 0.730477 0.509272 0.240135
46 1 0.875 0.625 0.375
33 1 0 0.75 0.25
37 1 0.125 0.875 0.375
41 1 0.485338 0.736085 0.246119
45 1 0.625 0.875 0.375
48 1 0 0.5 0.5
52 1 0.125 0.625 0.625
51 1 0.242604 0.742262 0.476843
55 1 0.375 0.875 0.625
59 1 0.765179 0.75396 0.496678
60 1 0.875 0.875 0.625
50 1 0.236814 0.509008 0.751211
54 1 0.375 0.625 0.875
56 1 0.875 0.625 0.875
58 1 0.763113 0.514848 0.729342
49 1 0 0.75 0.75
53 1 0.125 0.875 0.875
57 1 0.502918 0.749905 0.76941
61 1 0.625 0.875 0.875
ITEM: TIMESTEP
1600
ITEM: NUMBER OF ATOMS
61
ITEM: BOX BOUNDS pp pp pp
0.0000000000000000e+00 1.0859999999999999e+01
0.0000000000000000e+00 1.0859999999999999e+01
0.0000000000000000e+00 1.0859999999999999e+01
ITEM: ATOMS id type xs ys zs
1 1 0 0 0
5 1 0.125 0.125 0.125
9 1 0.5 0 0
13 1 0.625 0.125 0.125
4 1 0.25 0.25 0
8 1 0.375 0.375 0.125
12 1 0.75 0.25 0
16 1 0.875 0.375 0.125
3 1 0.25 0 0.25
7 1 0.375 0.125 0.375
11 1 0.75 0 0.25
15 1 0.875 0.125 0.375
2 1 0 0.25 0.25
6 1 0.125 0.375 0.375
10 1 0.500882 0.239887 0.245693
14 1 0.647701 0.360992 0.369139
17 1 0 0 0.5
21 1 0.125 0.125 0.625
25 1 0.5 0 0.5
29 1 0.625 0.125 0.625
24 1 0.377002 0.38001 0.613011
20 1 0.875 0.375 0.625
28 1 0.745385 0.260438 0.516791
19 1 0.25 0 0.75
23 1 0.375 0.125 0.875
27 1 0.75 0 0.75
31 1 0.875 0.125 0.875
18 1 0 0.25 0.75
22 1 0.125 0.375 0.875
26 1 0.492815 0.255567 0.749628
30 1 0.625 0.375 0.875
32 1 0 0.5 0
36 1 0.125 0.625 0.125
40 1 0.5 0.5 0
44 1 0.625 0.625 0.125
35 1 0.25 0.75 0
39 1 0.375 0.875 0.125
43 1 0.75 0.75 0
47 1 0.875 0.875 0.125
34 1 0.254901 0.497868 0.254555
38 1 0.401889 0.608196 0.398152
42 1 0.735958 0.515298 0.243361
46 1 0.875 0.625 0.375
33 1 0 0.75 0.25
37 1 0.125 0.875 0.375
41 1 0.495982 0.746321 0.241417
45 1 0.625 0.875 0.375
48 1 0 0.5 0.5
52 1 0.125 0.625 0.625
51 1 0.245045 0.744256 0.488154
55 1 0.375 0.875 0.625
59 1 0.763434 0.759652 0.491887
60 1 0.875 0.875 0.625
50 1 0.245615 0.509086 0.753882
54 1 0.375 0.625 0.875
56 1 0.875 0.625 0.875
58 1 0.756221 0.518622 0.728176
49 1 0 0.75 0.75
53 1 0.125 0.875 0.875
57 1 0.496615 0.753949 0.764814
61 1 0.625 0.875 0.875
ITEM: TIMESTEP
1700
ITEM: NUMBER OF ATOMS
61
ITEM: BOX BOUNDS pp pp pp
0.0000000000000000e+00 1.0859999999999999e+01
0.0000000000000000e+00 1.0859999999999999e+01
0.0000000000000000e+00 1.0859999999999999e+01
ITEM: ATOMS id type xs ys zs
1 1 0 0 0
5 1 0.125 0.125 0.125
9 1 0.5 0 0
13 1 0.625 0.125 0.125
4 1 0.25 0.25 0
8 1 0.375 0.375 0.125
12 1 0.75 0.25 0
16 1 0.875 0.375 0.125
3 1 0.25 0 0.25
7 1 0.375 0.125 0.375
11 1 0.75 0 0.25
15 1 0.875 0.125 0.375
2 1 0 0.25 0.25
6 1 0.125 0.375 0.375
10 1 0.49985 0.250132 0.257337
14 1 0.640587 0.356025 0.363129
17 1 0 0 0.5
21 1 0.125 0.125 0.625
25 1 0.5 0 0.5
29 1 0.625 0.125 0.625
24 1 0.382983 0.380253 0.614585
20 1 0.875 0.375 0.625
28 1 0.749699 0.250473 0.494692
19 1 0.25 0 0.75
23 1 0.375 0.125 0.875
27 1 0.75 0 0.75
31 1 0.875 0.125 0.875
18 1 0 0.25 0.75
22 1 0.125 0.375 0.875
26 1 0.502206 0.251643 0.75473
30 1 0.625 0.375 0.875
32 1 0 0.5 0
36 1 0.125 0.625 0.125
40 1 0.5 0.5 0
44 1 0.625 0.625 0.125
35 1 0.25 0.75 0
39 1 0.375 0.875 0.125
43 1 0.75 0.75 0
47 1 0.875 0.875 0.125
34 1 0.264781 0.491986 0.252365
38 1 0.400327 0.605287 0.394679
42 1 0.752406 0.511691 0.253772
46 1 0.875 0.625 0.375
33 1 0 0.75 0.25
37 1 0.125 0.875 0.375
41 1 0.508631 0.756135 0.242773
45 1 0.625 0.875 0.375
48 1 0 0.5 0.5
52 1 0.125 0.625 0.625
51 1 0.252652 0.74495 0.504221
55 1 0.375 0.875 0.625
59 1 0.758264 0.764301 0.487217
60 1 0.875 0.875 0.625
50 1 0.257774 0.503583 0.753425
54 1 0.375 0.625 0.875
56 1 0.875 0.625 0.875
58 1 0.745828 0.518384 0.733287
49 1 0 0.75 0.75
53 1 0.125 0.875 0.875
57 1 0.489101 0.758595 0.754386
61 1 0.625 0.875 0.875
ITEM: TIMESTEP
1800
ITEM: NUMBER OF ATOMS
61
ITEM: BOX BOUNDS pp pp pp
0.0000000000000000e+00 1.0859999999999999e+01
0.0000000000000000e+00 1.0859999999999999e+01
0.0000000000000000e+00 1.0859999999999999e+01
ITEM: ATOMS id type xs ys zs
1 1 0 0 0
5 1 0.125 0.125 0.125
9 1 0.5 0 0
13 1 0.625 0.125 0.125
4 1 0.25 0.25 0
8 1 0.375 0.375 0.125
12 1 0.75 0.25 0
16 1 0.875 0.375 0.125
3 1 0.25 0 0.25
7 1 0.375 0.125 0.375
11 1 0.75 0 0.25
15 1 0.875 0.125 0.375
2 1 0 0.25 0.25
6 1 0.125 0.375 0.375
10 1 0.495989 0.258113 0.263252
14 1 0.633131 0.359065 0.35567
17 1 0 0 0.5
21 1 0.125 0.125 0.625
25 1 0.5 0 0.5
29 1 0.625 0.125 0.625
24 1 0.389033 0.380194 0.62001
20 1 0.875 0.375 0.625
28 1 0.756876 0.23686 0.478521
19 1 0.25 0 0.75
23 1 0.375 0.125 0.875
27 1 0.75 0 0.75
31 1 0.875 0.125 0.875
18 1 0 0.25 0.75
22 1 0.125 0.375 0.875
26 1 0.509937 0.247598 0.75588
30 1 0.625 0.375 0.875
32 1 0 0.5 0
36 1 0.125 0.625 0.125
40 1 0.5 0.5 0
44 1 0.625 0.625 0.125
35 1 0.25 0.75 0
39 1 0.375 0.875 0.125
43 1 0.75 0.75 0
47 1 0.875 0.875 0.125
34 1 0.270459 0.490975 0.253953