ITEM: TIMESTEP
0
ITEM: NUMBER OF ATOMS
61
ITEM: BOX BOUNDS pp pp pp
0.0000000000000000e+00 1.0859999999999999e+01
0.0000000000000000e+00 1.0859999999999999e+01
0.0000000000000000e+00 1.0859999999999999e+01
ITEM: ATOMS id type xs ys zs
1 1 0 0 0
5 1 0.125 0.125 0.125
9 1 0.5 0 0
13 1 0.625 0.125 0.125
4 1 0.25 0.25 0
8 1 0.375 0.375 0.125
12 1 0.75 0.25 0
16 1 0.875 0.375 0.125
3 1 0.25 0 0.25
7 1 0.375 0.125 0.375
11 1 0.75 0 0.25
15 1 0.875 0.125 0.375
2 1 0 0.25 0.25
6 1 0.125 0.375 0.375
10 1 0.5 0.25 0.25
14 1 0.625 0.375 0.375
17 1 0 0 0.5
21 1 0.125 0.125 0.625
25 1 0.5 0 0.5
29 1 0.625 0.125 0.625
24 1 0.375 0.375 0.625
20 1 0.875 0.375 0.625
28 1 0.75 0.25 0.5
19 1 0.25 0 0.75
23 1 0.375 0.125 0.875
27 1 0.75 0 0.75
31 1 0.875 0.125 0.875
18 1 0 0.25 0.75
22 1 0.125 0.375 0.875
26 1 0.5 0.25 0.75
30 1 0.625 0.375 0.875
32 1 0 0.5 0
36 1 0.125 0.625 0.125
40 1 0.5 0.5 0
44 1 0.625 0.625 0.125
35 1 0.25 0.75 0
39 1 0.375 0.875 0.125
43 1 0.75 0.75 0
47 1 0.875 0.875 0.125
34 1 0.25 0.5 0.25
38 1 0.375 0.625 0.375
42 1 0.75 0.5 0.25
46 1 0.875 0.625 0.375
33 1 0 0.75 0.25
37 1 0.125 0.875 0.375
41 1 0.5 0.75 0.25
45 1 0.625 0.875 0.375
48 1 0 0.5 0.5
52 1 0.125 0.625 0.625
51 1 0.25 0.75 0.5
55 1 0.375 0.875 0.625
59 1 0.75 0.75 0.5
60 1 0.875 0.875 0.625
50 1 0.25 0.5 0.75
54 1 0.375 0.625 0.875
56 1 0.875 0.625 0.875
58 1 0.75 0.5 0.75
49 1 0 0.75 0.75
53 1 0.125 0.875 0.875
57 1 0.5 0.75 0.75
61 1 0.625 0.875 0.875
ITEM: TIMESTEP
100
ITEM: NUMBER OF ATOMS
61
ITEM: BOX BOUNDS pp pp pp
0.0000000000000000e+00 1.0859999999999999e+01
0.0000000000000000e+00 1.0859999999999999e+01
0.0000000000000000e+00 1.0859999999999999e+01
ITEM: ATOMS id type xs ys zs
1 1 0 0 0
5 1 0.125 0.125 0.125
9 1 0.5 0 0
13 1 0.625 0.125 0.125
4 1 0.25 0.25 0
8 1 0.375 0.375 0.125
12 1 0.75 0.25 0
16 1 0.875 0.375 0.125
3 1 0.25 0 0.25
7 1 0.375 0.125 0.375
11 1 0.75 0 0.25
15 1 0.875 0.125 0.375
2 1 0 0.25 0.25
6 1 0.125 0.375 0.375
10 1 0.493599 0.251065 0.252658
14 1 0.62653 0.380276 0.37662
17 1 0 0 0.5
21 1 0.125 0.125 0.625
25 1 0.5 0 0.5
29 1 0.625 0.125 0.625
24 1 0.378471 0.367966 0.624449
20 1 0.875 0.375 0.625
28 1 0.750238 0.247313 0.486383
19 1 0.25 0 0.75
23 1 0.375 0.125 0.875
27 1 0.75 0 0.75
31 1 0.875 0.125 0.875
18 1 0 0.25 0.75
22 1 0.125 0.375 0.875
26 1 0.502864 0.249364 0.752402
30 1 0.625 0.375 0.875
32 1 0 0.5 0
36 1 0.125 0.625 0.125
40 1 0.5 0.5 0
44 1 0.625 0.625 0.125
35 1 0.25 0.75 0
39 1 0.375 0.875 0.125
43 1 0.75 0.75 0
47 1 0.875 0.875 0.125
34 1 0.247665 0.49139 0.242607
38 1 0.378025 0.630455 0.374288
42 1 0.753898 0.493591 0.258193
46 1 0.875 0.625 0.375
33 1 0 0.75 0.25
37 1 0.125 0.875 0.375
41 1 0.505552 0.752678 0.250729
45 1 0.625 0.875 0.375
48 1 0 0.5 0.5
52 1 0.125 0.625 0.625
51 1 0.252303 0.751073 0.507458
55 1 0.375 0.875 0.625
59 1 0.749118 0.754027 0.495254
60 1 0.875 0.875 0.625
50 1 0.250758 0.501795 0.755122
54 1 0.375 0.625 0.875
56 1 0.875 0.625 0.875
58 1 0.741157 0.500616 0.752014
49 1 0 0.75 0.75
53 1 0.125 0.875 0.875
57 1 0.494799 0.754093 0.747088
61 1 0.625 0.875 0.875
ITEM: TIMESTEP
200
ITEM: NUMBER OF ATOMS
61
ITEM: BOX BOUNDS pp pp pp
0.0000000000000000e+00 1.0859999999999999e+01
0.0000000000000000e+00 1.0859999999999999e+01
0.0000000000000000e+00 1.0859999999999999e+01
ITEM: ATOMS id type xs ys zs
1 1 0 0 0
5 1 0.125 0.125 0.125
9 1 0.5 0 0
13 1 0.625 0.125 0.125
4 1 0.25 0.25 0
8 1 0.375 0.375 0.125
12 1 0.75 0.25 0
16 1 0.875 0.375 0.125
3 1 0.25 0 0.25
7 1 0.375 0.125 0.375
11 1 0.75 0 0.25
15 1 0.875 0.125 0.375
2 1 0 0.25 0.25
6 1 0.125 0.375 0.375
10 1 0.491251 0.253056 0.255003
14 1 0.625109 0.382231 0.377721
17 1 0 0 0.5
21 1 0.125 0.125 0.625
25 1 0.5 0 0.5
29 1 0.625 0.125 0.625
24 1 0.380247 0.363079 0.625843
20 1 0.875 0.375 0.625
28 1 0.749258 0.246837 0.480261
19 1 0.25 0 0.75
23 1 0.375 0.125 0.875
27 1 0.75 0 0.75
31 1 0.875 0.125 0.875
18 1 0 0.25 0.75
22 1 0.125 0.375 0.875
26 1 0.504772 0.248269 0.753774
30 1 0.625 0.375 0.875
32 1 0 0.5 0
36 1 0.125 0.625 0.125
40 1 0.5 0.5 0
44 1 0.625 0.625 0.125
35 1 0.25 0.75 0
39 1 0.375 0.875 0.125
43 1 0.75 0.75 0
47 1 0.875 0.875 0.125
34 1 0.246246 0.487893 0.240036
38 1 0.378349 0.634264 0.372227
42 1 0.756756 0.491279 0.261598
46 1 0.875 0.625 0.375
33 1 0 0.75 0.25
37 1 0.125 0.875 0.375
41 1 0.508424 0.754376 0.250371
45 1 0.625 0.875 0.375
48 1 0 0.5 0.5
52 1 0.125 0.625 0.625
51 1 0.253511 0.751339 0.510361
55 1 0.375 0.875 0.625
59 1 0.750209 0.75702 0.491908
60 1 0.875 0.875 0.625
50 1 0.251919 0.501153 0.756091
54 1 0.375 0.625 0.875
56 1 0.875 0.625 0.875
58 1 0.736446 0.501368 0.752709
49 1 0 0.75 0.75
53 1 0.125 0.875 0.875
57 1 0.491543 0.756858 0.747158
61 1 0.625 0.875 0.875
ITEM: TIMESTEP
300
ITEM: NUMBER OF ATOMS
61
ITEM: BOX BOUNDS pp pp pp
0.0000000000000000e+00 1.0859999999999999e+01
0.0000000000000000e+00 1.0859999999999999e+01
0.0000000000000000e+00 1.0859999999999999e+01
ITEM: ATOMS id type xs ys zs
1 1 0 0 0
5 1 0.125 0.125 0.125
9 1 0.5 0 0
13 1 0.625 0.125 0.125
4 1 0.25 0.25 0
8 1 0.375 0.375 0.125
12 1 0.75 0.25 0
16 1 0.875 0.375 0.125
3 1 0.25 0 0.25
7 1 0.375 0.125 0.375
11 1 0.75 0 0.25
15 1 0.875 0.125 0.375
2 1 0 0.25 0.25
6 1 0.125 0.375 0.375
10 1 0.494234 0.255477 0.256094
14 1 0.620061 0.381005 0.378224
17 1 0 0 0.5
21 1 0.125 0.125 0.625
25 1 0.5 0 0.5
29 1 0.625 0.125 0.625
24 1 0.379652 0.361219 0.628973
20 1 0.875 0.375 0.625
28 1 0.746877 0.248979 0.484262
19 1 0.25 0 0.75
23 1 0.375 0.125 0.875
27 1 0.75 0 0.75
31 1 0.875 0.125 0.875
18 1 0 0.25 0.75
22 1 0.125 0.375 0.875
26 1 0.505437 0.24639 0.754173
30 1 0.625 0.375 0.875
32 1 0 0.5 0
36 1 0.125 0.625 0.125
40 1 0.5 0.5 0
44 1 0.625 0.625 0.125
35 1 0.25 0.75 0
39 1 0.375 0.875 0.125
43 1 0.75 0.75 0
47 1 0.875 0.875 0.125
34 1 0.245747 0.491371 0.243305
38 1 0.375341 0.635609 0.368813
42 1 0.75752 0.493734 0.258902
46 1 0.875 0.625 0.375
33 1 0 0.75 0.25
37 1 0.125 0.875 0.375
41 1 0.507379 0.754649 0.248345
45 1 0.625 0.875 0.375
48 1 0 0.5 0.5
52 1 0.125 0.625 0.625
51 1 0.252853 0.750696 0.507023
55 1 0.375 0.875 0.625
59 1 0.753711 0.757933 0.491169
60 1 0.875 0.875 0.625
50 1 0.253161 0.497855 0.752104
54 1 0.375 0.625 0.875
56 1 0.875 0.625 0.875
58 1 0.737515 0.502652 0.751287
49 1 0 0.75 0.75
53 1 0.125 0.875 0.875
57 1 0.491676 0.757159 0.75116
61 1 0.625 0.875 0.875
ITEM: TIMESTEP
400
ITEM: NUMBER OF ATOMS
61
ITEM: BOX BOUNDS pp pp pp
0.0000000000000000e+00 1.0859999999999999e+01
0.0000000000000000e+00 1.0859999999999999e+01
0.0000000000000000e+00 1.0859999999999999e+01
ITEM: ATOMS id type xs ys zs
1 1 0 0 0
5 1 0.125 0.125 0.125
9 1 0.5 0 0
13 1 0.625 0.125 0.125
4 1 0.25 0.25 0
8 1 0.375 0.375 0.125
12 1 0.75 0.25 0
16 1 0.875 0.375 0.125
3 1 0.25 0 0.25
7 1 0.375 0.125 0.375
11 1 0.75 0 0.25
15 1 0.875 0.125 0.375
2 1 0 0.25 0.25
6 1 0.125 0.375 0.375
10 1 0.500016 0.256373 0.255044
14 1 0.614661 0.379057 0.377724
17 1 0 0 0.5
21 1 0.125 0.125 0.625
25 1 0.5 0 0.5
29 1 0.625 0.125 0.625
24 1 0.377041 0.361957 0.63269
20 1 0.875 0.375 0.625
28 1 0.744525 0.252596 0.496297
19 1 0.25 0 0.75
23 1 0.375 0.125 0.875
27 1 0.75 0 0.75
31 1 0.875 0.125 0.875
18 1 0 0.25 0.75
22 1 0.125 0.375 0.875
26 1 0.504914 0.24435 0.754028
30 1 0.625 0.375 0.875
32 1 0 0.5 0
36 1 0.125 0.625 0.125
40 1 0.5 0.5 0
44 1 0.625 0.625 0.125
35 1 0.25 0.75 0
39 1 0.375 0.875 0.125
43 1 0.75 0.75 0
47 1 0.875 0.875 0.125
34 1 0.247168 0.499938 0.250343
38 1 0.369753 0.634422 0.36446
42 1 0.754042 0.499026 0.252303
46 1 0.875 0.625 0.375
33 1 0 0.75 0.25
37 1 0.125 0.875 0.375
41 1 0.503222 0.753624 0.245604
45 1 0.625 0.875 0.375
48 1 0 0.5 0.5
52 1 0.125 0.625 0.625
51 1 0.250592 0.749907 0.499429
55 1 0.375 0.875 0.625
59 1 0.758215 0.756935 0.492749
60 1 0.875 0.875 0.625
50 1 0.254114 0.493638 0.745582
54 1 0.375 0.625 0.875
56 1 0.875 0.625 0.875
58 1 0.743766 0.503772 0.748477
49 1 0 0.75 0.75
53 1 0.125 0.875 0.875
57 1 0.4945 0.755533 0.757339
61 1 0.625 0.875 0.875
ITEM: TIMESTEP
500
ITEM: NUMBER OF ATOMS
61
ITEM: BOX BOUNDS pp pp pp
0.0000000000000000e+00 1.0859999999999999e+01
0.0000000000000000e+00 1.0859999999999999e+01
0.0000000000000000e+00 1.0859999999999999e+01
ITEM: ATOMS id type xs ys zs
1 1 0 0 0
5 1 0.125 0.125 0.125
9 1 0.5 0 0
13 1 0.625 0.125 0.125
4 1 0.25 0.25 0
8 1 0.375 0.375 0.125
12 1 0.75 0.25 0
16 1 0.875 0.375 0.125
3 1 0.25 0 0.25
7 1 0.375 0.125 0.375
11 1 0.75 0 0.25
15 1 0.875 0.125 0.375
2 1 0 0.25 0.25
6 1 0.125 0.375 0.375
10 1 0.504126 0.253659 0.251248
14 1 0.613316 0.378742 0.377353
17 1 0 0 0.5
21 1 0.125 0.125 0.625
25 1 0.5 0 0.5
29 1 0.625 0.125 0.625
24 1 0.3742 0.363262 0.634888
20 1 0.875 0.375 0.625
28 1 0.743378 0.256199 0.510042
19 1 0.25 0 0.75
23 1 0.375 0.125 0.875
27 1 0.75 0 0.75
31 1 0.875 0.125 0.875
18 1 0 0.25 0.75
22 1 0.125 0.375 0.875
26 1 0.503459 0.243397 0.753719
30 1 0.625 0.375 0.875
32 1 0 0.5 0
36 1 0.125 0.625 0.125
40 1 0.5 0.5 0
44 1 0.625 0.625 0.125
35 1 0.25 0.75 0
39 1 0.375 0.875 0.125
43 1 0.75 0.75 0
47 1 0.875 0.875 0.125
34 1 0.249504 0.508133 0.256352
38 1 0.364587 0.632482 0.361148
42 1 0.746711 0.504466 0.245551
46 1 0.875 0.625 0.375
33 1 0 0.75 0.25
37 1 0.125 0.875 0.375
41 1 0.498222 0.751653 0.244025
45 1 0.625 0.875 0.375
48 1 0 0.5 0.5
52 1 0.125 0.625 0.625
51 1 0.247728 0.749717 0.491983
55 1 0.375 0.875 0.625
59 1 0.761094 0.755014 0.495321
60 1 0.875 0.875 0.625
50 1 0.25353 0.491646 0.741029
54 1 0.375 0.625 0.875
56 1 0.875 0.625 0.875
58 1 0.752719 0.503574 0.745962
49 1 0 0.75 0.75
53 1 0.125 0.875 0.875
57 1 0.497914 0.753338 0.762058
61 1 0.625 0.875 0.875
ITEM: TIMESTEP
600
ITEM: NUMBER OF ATOMS
61
ITEM: BOX BOUNDS pp pp pp
0.0000000000000000e+00 1.0859999999999999e+01
0.0000000000000000e+00 1.0859999999999999e+01
0.0000000000000000e+00 1.0859999999999999e+01
ITEM: ATOMS id type xs ys zs
1 1 0 0 0
5 1 0.125 0.125 0.125
9 1 0.5 0 0
13 1 0.625 0.125 0.125
4 1 0.25 0.25 0
8 1 0.375 0.375 0.125
12 1 0.75 0.25 0
16 1 0.875 0.375 0.125
3 1 0.25 0 0.25
7 1 0.375 0.125 0.375
11 1 0.75 0 0.25
15 1 0.875 0.125 0.375
2 1 0 0.25 0.25
6 1 0.125 0.375 0.375
10 1 0.504233 0.248375 0.246518
14 1 0.617163 0.380017 0.377591
17 1 0 0 0.5
21 1 0.125 0.125 0.625
25 1 0.5 0 0.5
29 1 0.625 0.125 0.625
24 1 0.372861 0.363216 0.633827
20 1 0.875 0.375 0.625
28 1 0.743149 0.258673 0.517777
19 1 0.25 0 0.75
23 1 0.375 0.125 0.875
27 1 0.75 0 0.75
31 1 0.875 0.125 0.875
18 1 0 0.25 0.75
22 1 0.125 0.375 0.875
26 1 0.50161 0.244359 0.753358
30 1 0.625 0.375 0.875
32 1 0 0.5 0
36 1 0.125 0.625 0.125
40 1 0.5 0.5 0
44 1 0.625 0.625 0.125
35 1 0.25 0.75 0
39 1 0.375 0.875 0.125
43 1 0.75 0.75 0
47 1 0.875 0.875 0.125
34 1 0.248666 0.509094 0.255868
38 1 0.364372 0.633388 0.362507
42 1 0.739824 0.506699 0.242941
46 1 0.875 0.625 0.375
33 1 0 0.75 0.25
37 1 0.125 0.875 0.375
41 1 0.494865 0.749309 0.244762
45 1 0.625 0.875 0.375
48 1 0 0.5 0.5
52 1 0.125 0.625 0.625
51 1 0.245574 0.750018 0.488894
55 1 0.375 0.875 0.625
59 1 0.760344 0.753062 0.497622
60 1 0.875 0.875 0.625
50 1 0.250479 0.494039 0.741729
54 1 0.375 0.625 0.875
56 1 0.875 0.625 0.875
58 1 0.760725 0.501711 0.745477
49 1 0 0.75 0.75
53 1 0.125 0.875 0.875
57 1 0.500068 0.751465 0.762302
61 1 0.625 0.875 0.875
ITEM: TIMESTEP
700
ITEM: NUMBER OF ATOMS
61
ITEM: BOX BOUNDS pp pp pp
0.0000000000000000e+00 1.0859999999999999e+01
0.0000000000000000e+00 1.0859999999999999e+01
0.0000000000000000e+00 1.0859999999999999e+01
ITEM: ATOMS id type xs ys zs
1 1 0 0 0
5 1 0.125 0.125 0.125
9 1 0.5 0 0
13 1 0.625 0.125 0.125
4 1 0.25 0.25 0
8 1 0.375 0.375 0.125
12 1 0.75 0.25 0
16 1 0.875 0.375 0.125
3 1 0.25 0 0.25
7 1 0.375 0.125 0.375
11 1 0.75 0 0.25
15 1 0.875 0.125 0.375
2 1 0 0.25 0.25
6 1 0.125 0.375 0.375
10 1 0.500939 0.244354 0.244548
14 1 0.62345 0.380557 0.377283
17 1 0 0 0.5
21 1 0.125 0.125 0.625
25 1 0.5 0 0.5
29 1 0.625 0.125 0.625
24 1 0.37212 0.362798 0.630118
20 1 0.875 0.375 0.625
28 1 0.743352 0.259188 0.515409
19 1 0.25 0 0.75
23 1 0.375 0.125 0.875
27 1 0.75 0 0.75
31 1 0.875 0.125 0.875
18 1 0 0.25 0.75
22 1 0.125 0.375 0.875
26 1 0.50016 0.246902 0.752804
30 1 0.625 0.375 0.875
32 1 0 0.5 0
36 1 0.125 0.625 0.125
40 1 0.5 0.5 0
44 1 0.625 0.625 0.125
35 1 0.25 0.75 0
39 1 0.375 0.875 0.125
43 1 0.75 0.75 0
47 1 0.875 0.875 0.125
34 1 0.245386 0.502436 0.24955
38 1 0.368374 0.63547 0.368204
42 1 0.738288 0.503748 0.246576
46 1 0.875 0.625 0.375
33 1 0 0.75 0.25
37 1 0.125 0.875 0.375
41 1 0.494989 0.74811 0.247281
45 1 0.625 0.875 0.375
48 1 0 0.5 0.5
52 1 0.125 0.625 0.625
51 1 0.245203 0.750676 0.492346
55 1 0.375 0.875 0.625
59 1 0.75584 0.751528 0.499064
60 1 0.875 0.875 0.625
50 1 0.24698 0.499344 0.74715
54 1 0.375 0.625 0.875
56 1 0.875 0.625 0.875
58 1 0.764353 0.49877 0.748191
49 1 0 0.75 0.75
53 1 0.125 0.875 0.875
57 1 0.500285 0.750298 0.757423
61 1 0.625 0.875 0.875
ITEM: TIMESTEP
800
ITEM: NUMBER OF ATOMS
61
ITEM: BOX BOUNDS pp pp pp
0.0000000000000000e+00 1.0859999999999999e+01
0.0000000000000000e+00 1.0859999999999999e+01
0.0000000000000000e+00 1.0859999999999999e+01
ITEM: ATOMS id type xs ys zs
1 1 0 0 0
5 1 0.125 0.125 0.125
9 1 0.5 0 0
13 1 0.625 0.125 0.125
4 1 0.25 0.25 0
8 1 0.375 0.375 0.125
12 1 0.75 0.25 0
16 1 0.875 0.375 0.125
3 1 0.25 0 0.25
7 1 0.375 0.125 0.375
11 1 0.75 0 0.25
15 1 0.875 0.125 0.375
2 1 0 0.25 0.25
6 1 0.125 0.375 0.375
10 1 0.496494 0.244325 0.246999
14 1 0.628018 0.378094 0.37605
17 1 0 0 0.5
21 1 0.125 0.125 0.625
25 1 0.5 0 0.5
29 1 0.625 0.125 0.625
24 1 0.370055 0.36423 0.62597
20 1 0.875 0.375 0.625
28 1 0.744803 0.256991 0.504325
19 1 0.25 0 0.75
23 1 0.375 0.125 0.875
27 1 0.75 0 0.75
31 1 0.875 0.125 0.875
18 1 0 0.25 0.75
22 1 0.125 0.375 0.875
26 1 0.49954 0.249843 0.751726
30 1 0.625 0.375 0.875
32 1 0 0.5 0
36 1 0.125 0.625 0.125
40 1 0.5 0.5 0
44 1 0.625 0.625 0.125
35 1 0.25 0.75 0
39 1 0.375 0.875 0.125
43 1 0.75 0.75 0
47 1 0.875 0.875 0.125
34 1 0.244309 0.493702 0.243244
38 1 0.371968 0.63383 0.374498
42 1 0.743861 0.498143 0.253468
46 1 0.875 0.625 0.375
33 1 0 0.75 0.25
37 1 0.125 0.875 0.375
41 1 0.498827 0.749429 0.250208
45 1 0.625 0.875 0.375
48 1 0 0.5 0.5
52 1 0.125 0.625 0.625
51 1 0.246872 0.751911 0.501188
55 1 0.375 0.875 0.625
59 1 0.74934 0.7505 0.49971
60 1 0.875 0.875 0.625
50 1 0.245915 0.504157 0.753879
54 1 0.375 0.625 0.875
56 1 0.875 0.625 0.875
58 1 0.762123 0.495278 0.754008
49 1 0 0.75 0.75
53 1 0.125 0.875 0.875
57 1 0.499057 0.749984 0.749396
61 1 0.625 0.875 0.875
ITEM: TIMESTEP
900
ITEM: NUMBER OF ATOMS
61
ITEM: BOX BOUNDS pp pp pp
0.0000000000000000e+00 1.0859999999999999e+01
0.0000000000000000e+00 1.0859999999999999e+01
0.0000000000000000e+00 1.0859999999999999e+01
ITEM: ATOMS id type xs ys zs
1 1 0 0 0
5 1 0.125 0.125 0.125
9 1 0.5 0 0
13 1 0.625 0.125 0.125
4 1 0.25 0.25 0
8 1 0.375 0.375 0.125
12 1 0.75 0.25 0
16 1 0.875 0.375 0.125
3 1 0.25 0 0.25
7 1 0.375 0.125 0.375
11 1 0.75 0 0.25
15 1 0.875 0.125 0.375
2 1 0 0.25 0.25
6 1 0.125 0.375 0.375
10 1 0.49393 0.248335 0.252138
14 1 0.627914 0.372393 0.373963
17 1 0 0 0.5
21 1 0.125 0.125 0.625
25 1 0.5 0 0.5
29 1 0.625 0.125 0.625
24 1 0.36628 0.368315 0.623406
20 1 0.875 0.375 0.625
28 1 0.748876 0.251467 0.490989
19 1 0.25 0 0.75
23 1 0.375 0.125 0.875
27 1 0.75 0 0.75
31 1 0.875 0.125 0.875
18 1 0 0.25 0.75
22 1 0.125 0.375 0.875
26 1 0.49932 0.252153 0.749718
30 1 0.625 0.375 0.875
32 1 0 0.5 0
36 1 0.125 0.625 0.125
40 1 0.5 0.5 0
44 1 0.625 0.625 0.125
35 1 0.25 0.75 0
39 1 0.375 0.875 0.125
43 1 0.75 0.75 0
47 1 0.875 0.875 0.125
34 1 0.246164 0.488076 0.241097
38 1 0.373383 0.628307 0.379134
42 1 0.754135 0.494311 0.258186
46 1 0.875 0.625 0.375
33 1 0 0.75 0.25
37 1 0.125 0.875 0.375
41 1 0.503853 0.752136 0.252739
45 1 0.625 0.875 0.375
48 1 0 0.5 0.5
52 1 0.125 0.625 0.625
51 1 0.249725 0.753204 0.510497
55 1 0.375 0.875 0.625
59 1 0.743563 0.749759 0.500015
60 1 0.875 0.875 0.625
50 1 0.24746 0.505967 0.758028
54 1 0.375 0.625 0.875
56 1 0.875 0.625 0.875
58 1 0.75568 0.491627 0.760779
49 1 0 0.75 0.75
53 1 0.125 0.875 0.875
57 1 0.497693 0.750128 0.741879
61 1 0.625 0.875 0.875
ITEM: TIMESTEP
1000
ITEM: NUMBER OF ATOMS
61
ITEM: BOX BOUNDS pp pp pp
0.0000000000000000e+00 1.0859999999999999e+01
0.0000000000000000e+00 1.0859999999999999e+01
0.0000000000000000e+00 1.0859999999999999e+01
ITEM: ATOMS id type xs ys zs
1 1 0 0 0
5 1 0.125 0.125 0.125
9 1 0.5 0 0
13 1 0.625 0.125 0.125
4 1 0.25 0.25 0
8 1 0.375 0.375 0.125
12 1 0.75 0.25 0
16 1 0.875 0.375 0.125
3 1 0.25 0 0.25
7 1 0.375 0.125 0.375
11 1 0.75 0 0.25
15 1 0.875 0.125 0.375
2 1 0 0.25 0.25
6 1 0.125 0.375 0.375
10 1 0.494605 0.253866 0.256352
14 1 0.624712 0.366349 0.370823
17 1 0 0 0.5
21 1 0.125 0.125 0.625
25 1 0.5 0 0.5
29 1 0.625 0.125 0.625
24 1 0.36181 0.374396 0.623365
20 1 0.875 0.375 0.625
28 1 0.7541 0.244365 0.483213
19 1 0.25 0 0.75
23 1 0.375 0.125 0.875
27 1 0.75 0 0.75
31 1 0.875 0.125 0.875
18 1 0 0.25 0.75
22 1 0.125 0.375 0.875
26 1 0.498632 0.253619 0.746756
30 1 0.625 0.375 0.875
32 1 0 0.5 0
36 1 0.125 0.625 0.125
40 1 0.5 0.5 0
44 1 0.625 0.625 0.125
35 1 0.25 0.75 0
39 1 0.375 0.875 0.125
43 1 0.75 0.75 0
47 1 0.875 0.875 0.125
34 1 0.248958 0.488979 0.244454
38 1 0.373116 0.62164 0.381268
42 1 0.762977 0.493115 0.258301
46 1 0.875 0.625 0.375
33 1 0 0.75 0.25
37 1 0.125 0.875 0.375
41 1 0.506215 0.753249 0.25424
45 1 0.625 0.875 0.375
48 1 0 0.5 0.5
52 1 0.125 0.625 0.625
51 1 0.251891 0.752974 0.514298
55 1 0.375 0.875 0.625
59 1 0.740803 0.748979 0.500456
60 1 0.875 0.875 0.625
50 1 0.249636 0.503971 0.757344
54 1 0.375 0.625 0.875
56 1 0.875 0.625 0.875
58 1 0.749518 0.489404 0.764707
49 1 0 0.75 0.75
53 1 0.125 0.875 0.875
57 1 0.497634 0.749869 0.73825
61 1 0.625 0.875 0.875
ITEM: TIMESTEP
1100
ITEM: NUMBER OF ATOMS
61
ITEM: BOX BOUNDS pp pp pp
0.0000000000000000e+00 1.0859999999999999e+01
0.0000000000000000e+00 1.0859999999999999e+01
0.0000000000000000e+00 1.0859999999999999e+01
ITEM: ATOMS id type xs ys zs
1 1 0 0 0
5 1 0.125 0.125 0.125
9 1 0.5 0 0
13 1 0.625 0.125 0.125
4 1 0.25 0.25 0
8 1 0.375 0.375 0.125
12 1 0.75 0.25 0
16 1 0.875 0.375 0.125
3 1 0.25 0 0.25
7 1 0.375 0.125 0.375
11 1 0.75 0 0.25
15 1 0.875 0.125 0.375
2 1 0 0.25 0.25
6 1 0.125 0.375 0.375
10 1 0.496066 0.25621 0.25584
14 1 0.62382 0.363958 0.368625
17 1 0 0 0.5
21 1 0.125 0.125 0.625
25 1 0.5 0 0.5
29 1 0.625 0.125 0.625
24 1 0.358679 0.380484 0.624973
20 1 0.875 0.375 0.625
28 1 0.755824 0.240734 0.485474
19 1 0.25 0 0.75
23 1 0.375 0.125 0.875
27 1 0.75 0 0.75
31 1 0.875 0.125 0.875
18 1 0 0.25 0.75
22 1 0.125 0.375 0.875
26 1 0.496937 0.254656 0.743626
30 1 0.625 0.375 0.875
32 1 0 0.5 0
36 1 0.125 0.625 0.125
40 1 0.5 0.5 0
44 1 0.625 0.625 0.125
35 1 0.25 0.75 0
39 1 0.375 0.875 0.125
43 1 0.75 0.75 0
47 1 0.875 0.875 0.125
34 1 0.251455 0.496269 0.251879
38 1 0.372419 0.616375 0.381153
42 1 0.764609 0.493281 0.254738
46 1 0.875 0.625 0.375
33 1 0 0.75 0.25
37 1 0.125 0.875 0.375
41 1 0.50379 0.750868 0.254236
45 1 0.625 0.875 0.375
48 1 0 0.5 0.5
52 1 0.125 0.625 0.625
51 1 0.252076 0.750278 0.509809
55 1 0.375 0.875 0.625
59 1 0.741999 0.748118 0.501123
60 1 0.875 0.875 0.625
50 1 0.250292 0.499939 0.752898
54 1 0.375 0.625 0.875
56 1 0.875 0.625 0.875
58 1 0.747837 0.49079 0.76275
49 1 0 0.75 0.75
53 1 0.125 0.875 0.875
57 1 0.499396 0.748821 0.740027
61 1 0.625 0.875 0.875
ITEM: TIMESTEP
1200
ITEM: NUMBER OF ATOMS
61
ITEM: BOX BOUNDS pp pp pp
0.0000000000000000e+00 1.0859999999999999e+01
0.0000000000000000e+00 1.0859999999999999e+01
0.0000000000000000e+00 1.0859999999999999e+01
ITEM: ATOMS id type xs ys zs
1 1 0 0 0
5 1 0.125 0.125 0.125
9 1 0.5 0 0
13 1 0.625 0.125 0.125
4 1 0.25 0.25 0
8 1 0.375 0.375 0.125
12 1 0.75 0.25 0
16 1 0.875 0.375 0.125
3 1 0.25 0 0.25
7 1 0.375 0.125 0.375
11 1 0.75 0 0.25
15 1 0.875 0.125 0.375
2 1 0 0.25 0.25
6 1 0.125 0.375 0.375
10 1 0.496302 0.252662 0.249904
14 1 0.628347 0.366546 0.369181
17 1 0 0 0.5
21 1 0.125 0.125 0.625
25 1 0.5 0 0.5
29 1 0.625 0.125 0.625
24 1 0.359596 0.383448 0.625397
20 1 0.875 0.375 0.625
28 1 0.752158 0.243163 0.496887
19 1 0.25 0 0.75
23 1 0.375 0.125 0.875
27 1 0.75 0 0.75
31 1 0.875 0.125 0.875
18 1 0 0.25 0.75
22 1 0.125 0.375 0.875
26 1 0.494468 0.255574 0.741665
30 1 0.625 0.375 0.875
32 1 0 0.5 0
36 1 0.125 0.625 0.125
40 1 0.5 0.5 0
44 1 0.625 0.625 0.125
35 1 0.25 0.75 0
39 1 0.375 0.875 0.125
43 1 0.75 0.75 0
47 1 0.875 0.875 0.125
34 1 0.252516 0.504991 0.258839
38 1 0.373342 0.614929 0.380455
42 1 0.757447 0.4951 0.249506
46 1 0.875 0.625 0.375
33 1 0 0.75 0.25
37 1 0.125 0.875 0.375
41 1 0.497658 0.745749 0.253312
45 1 0.625 0.875 0.375
48 1 0 0.5 0.5
52 1 0.125 0.625 0.625
51 1 0.250854 0.746281 0.499245
55 1 0.375 0.875 0.625
59 1 0.746617 0.747619 0.501601
60 1 0.875 0.875 0.625
50 1 0.24776 0.498026 0.749011
54 1 0.375 0.625 0.875
56 1 0.875 0.625 0.875
58 1 0.750892 0.49568 0.755338
49 1 0 0.75 0.75
53 1 0.125 0.875 0.875
57 1 0.502059 0.74768 0.746407
61 1 0.625 0.875 0.875
ITEM: TIMESTEP
1300
ITEM: NUMBER OF ATOMS
61
ITEM: BOX BOUNDS pp pp pp
0.0000000000000000e+00 1.0859999999999999e+01
0.0000000000000000e+00 1.0859999999999999e+01
0.0000000000000000e+00 1.0859999999999999e+01
ITEM: ATOMS id type xs ys zs
1 1 0 0 0
5 1 0.125 0.125 0.125
9 1 0.5 0 0
13 1 0.625 0.125 0.125
4 1 0.25 0.25 0
8 1 0.375 0.375 0.125
12 1 0.75 0.25 0
16 1 0.875 0.375 0.125
3 1 0.25 0 0.25
7 1 0.375 0.125 0.375
11 1 0.75 0 0.25
15 1 0.875 0.125 0.375
2 1 0 0.25 0.25
6 1 0.125 0.375 0.375
10 1 0.497247 0.246059 0.243161
14 1 0.634846 0.370855 0.370803
17 1 0 0 0.5
21 1 0.125 0.125 0.625
25 1 0.5 0 0.5
29 1 0.625 0.125 0.625
24 1 0.365043 0.382268 0.623092
20 1 0.875 0.375 0.625
28 1 0.746916 0.249404 0.510794
19 1 0.25 0 0.75
23 1 0.375 0.125 0.875
27 1 0.75 0 0.75
31 1 0.875 0.125 0.875
18 1 0 0.25 0.75
22 1 0.125 0.375 0.875
26 1 0.492368 0.25592 0.742022
30 1 0.625 0.375 0.875
32 1 0 0.5 0
36 1 0.125 0.625 0.125
40 1 0.5 0.5 0
44 1 0.625 0.625 0.125
35 1 0.25 0.75 0
39 1 0.375 0.875 0.125
43 1 0.75 0.75 0
47 1 0.875 0.875 0.125
34 1 0.250607 0.509002 0.260653
38 1 0.37756 0.618238 0.380938
42 1 0.745588 0.499266 0.24473
46 1 0.875 0.625 0.375
33 1 0 0.75 0.25
37 1 0.125 0.875 0.375
41 1 0.491515 0.740766 0.252255
45 1 0.625 0.875 0.375
48 1 0 0.5 0.5
52 1 0.125 0.625 0.625
51 1 0.249419 0.743329 0.488908
55 1 0.375 0.875 0.625
59 1 0.752875 0.748175 0.501312
60 1 0.875 0.875 0.625
50 1 0.243113 0.500244 0.748495
54 1 0.375 0.625 0.875
56 1 0.875 0.625 0.875
58 1 0.755403 0.501695 0.746214
49 1 0 0.75 0.75
53 1 0.125 0.875 0.875
57 1 0.503916 0.74751 0.754622
61 1 0.625 0.875 0.875
ITEM: TIMESTEP
1400
ITEM: NUMBER OF ATOMS
61
ITEM: BOX BOUNDS pp pp pp
0.0000000000000000e+00 1.0859999999999999e+01
0.0000000000000000e+00 1.0859999999999999e+01
0.0000000000000000e+00 1.0859999999999999e+01
ITEM: ATOMS id type xs ys zs
1 1 0 0 0
5 1 0.125 0.125 0.125
9 1 0.5 0 0
13 1 0.625 0.125 0.125
4 1 0.25 0.25 0
8 1 0.375 0.375 0.125
12 1 0.75 0.25 0
16 1 0.875 0.375 0.125
3 1 0.25 0 0.25
7 1 0.375 0.125 0.375
11 1 0.75 0 0.25
15 1 0.875 0.125 0.375
2 1 0 0.25 0.25
6 1 0.125 0.375 0.375
10 1 0.499549 0.24129 0.240728
14 1 0.637998 0.372953 0.371829
17 1 0 0 0.5
21 1 0.125 0.125 0.625
25 1 0.5 0 0.5
29 1 0.625 0.125 0.625
24 1 0.371839 0.379693 0.619867
20 1 0.875 0.375 0.625
28 1 0.74433 0.256384 0.519354
19 1 0.25 0 0.75
23 1 0.375 0.125 0.875
27 1 0.75 0 0.75
31 1 0.875 0.125 0.875
18 1 0 0.25 0.75
22 1 0.125 0.375 0.875
26 1 0.492277 0.254816 0.744991
30 1 0.625 0.375 0.875
32 1 0 0.5 0
36 1 0.125 0.625 0.125
40 1 0.5 0.5 0
44 1 0.625 0.625 0.125
35 1 0.25 0.75 0
39 1 0.375 0.875 0.125
43 1 0.75 0.75 0
47 1 0.875 0.875 0.125
34 1 0.247376 0.507085 0.257458
38 1 0.383282 0.622482 0.381924
42 1 0.737537 0.504202 0.242438
46 1 0.875 0.625 0.375
33 1 0 0.75 0.25
37 1 0.125 0.875 0.375
41 1 0.489606 0.739447 0.250468
45 1 0.625 0.875 0.375
48 1 0 0.5 0.5
52 1 0.125 0.625 0.625
51 1 0.248094 0.742984 0.484697
55 1 0.375 0.875 0.625
59 1 0.758282 0.750233 0.499883
60 1 0.875 0.875 0.625
50 1 0.241029 0.503834 0.749938
54 1 0.375 0.625 0.875
56 1 0.875 0.625 0.875
58 1 0.75793 0.506909 0.739309
49 1 0 0.75 0.75
53 1 0.125 0.875 0.875
57 1 0.503507 0.748722 0.760936
61 1 0.625 0.875 0.875
ITEM: TIMESTEP
1500
ITEM: NUMBER OF ATOMS
61
ITEM: BOX BOUNDS pp pp pp
0.0000000000000000e+00 1.0859999999999999e+01
0.0000000000000000e+00 1.0859999999999999e+01
0.0000000000000000e+00 1.0859999999999999e+01
ITEM: ATOMS id type xs ys zs
1 1 0 0 0
5 1 0.125 0.125 0.125
9 1 0.5 0 0
13 1 0.625 0.125 0.125
4 1 0.25 0.25 0
8 1 0.375 0.375 0.125
12 1 0.75 0.25 0
16 1 0.875 0.375 0.125
3 1 0.25 0 0.25
7 1 0.375 0.125 0.375
11 1 0.75 0 0.25
15 1 0.875 0.125 0.375
2 1 0 0.25 0.25
6 1 0.125 0.375 0.375
10 1 0.501641 0.241678 0.244574
14 1 0.635987 0.371683 0.371723
17 1 0 0 0.5
21 1 0.125 0.125 0.625
25 1 0.5 0 0.5
29 1 0.625 0.125 0.625
24 1 0.37728 0.378127 0.617975
20 1 0.875 0.375 0.625
28 1 0.744431 0.261129 0.51858
19 1 0.25 0 0.75
23 1 0.375 0.125 0.875
27 1 0.75 0 0.75
31 1 0.875 0.125 0.875
18 1 0 0.25 0.75
22 1 0.125 0.375 0.875
26 1 0.495061 0.252235 0.749418
30 1 0.625 0.375 0.875
32 1 0 0.5 0
36 1 0.125 0.625 0.125
40 1 0.5 0.5 0
44 1 0.625 0.625 0.125
35 1 0.25 0.75 0
39 1 0.375 0.875 0.125
43 1 0.75 0.75 0
47 1 0.875 0.875 0.125
34 1 0.24655 0.501712 0.252475
38 1 0.386849 0.623479 0.382028
42 1 0.738907 0.506762 0.24446
46 1 0.875 0.625 0.375
33 1 0 0.75 0.25
37 1 0.125 0.875 0.375
41 1 0.49397 0.743605 0.247402
45 1 0.625 0.875 0.375
48 1 0 0.5 0.5
52 1 0.125 0.625 0.625
51 1 0.247413 0.745022 0.488511
55 1 0.375 0.875 0.625
59 1 0.760698 0.753626 0.497234
60 1 0.875 0.875 0.625
50 1 0.244515 0.505413 0.751229
54 1 0.375 0.625 0.875
56 1 0.875 0.625 0.875
58 1 0.756976 0.510524 0.736588
49 1 0 0.75 0.75
53 1 0.125 0.875 0.875
57 1 0.500281 0.751139 0.762444
61 1 0.625 0.875 0.875
ITEM: TIMESTEP
1600
ITEM: NUMBER OF ATOMS
61
ITEM: BOX BOUNDS pp pp pp
0.0000000000000000e+00 1.0859999999999999e+01
0.0000000000000000e+00 1.0859999999999999e+01
0.0000000000000000e+00 1.0859999999999999e+01
ITEM: ATOMS id type xs ys zs
1 1 0 0 0
5 1 0.125 0.125 0.125
9 1 0.5 0 0
13 1 0.625 0.125 0.125
4 1 0.25 0.25 0
8 1 0.375 0.375 0.125
12 1 0.75 0.25 0
16 1 0.875 0.375 0.125
3 1 0.25 0 0.25
7 1 0.375 0.125 0.375
11 1 0.75 0 0.25
15 1 0.875 0.125 0.375
2 1 0 0.25 0.25
6 1 0.125 0.375 0.375
10 1 0.502666 0.247162 0.252667
14 1 0.629732 0.368966 0.370002
17 1 0 0 0.5
21 1 0.125 0.125 0.625
25 1 0.5 0 0.5
29 1 0.625 0.125 0.625
24 1 0.38103 0.377759 0.618837
20 1 0.875 0.375 0.625
28 1 0.745899 0.260555 0.50906
19 1 0.25 0 0.75
23 1 0.375 0.125 0.875
27 1 0.75 0 0.75
31 1 0.875 0.125 0.875
18 1 0 0.25 0.75
22 1 0.125 0.375 0.875
26 1 0.499878 0.24932 0.753052
30 1 0.625 0.375 0.875
32 1 0 0.5 0
36 1 0.125 0.625 0.125
40 1 0.5 0.5 0
44 1 0.625 0.625 0.125
35 1 0.25 0.75 0
39 1 0.375 0.875 0.125
43 1 0.75 0.75 0
47 1 0.875 0.875 0.125
34 1 0.249478 0.495904 0.248306
38 1 0.38652 0.621994 0.379957
42 1 0.748708 0.505426 0.250472
46 1 0.875 0.625 0.375
33 1 0 0.75 0.25
37 1 0.125 0.875 0.375
41 1 0.502703 0.751274 0.245199
45 1 0.625 0.875 0.375
48 1 0 0.5 0.5
52 1 0.125 0.625 0.625
51 1 0.248768 0.748182 0.498381
55 1 0.375 0.875 0.625
59 1 0.759473 0.757504 0.493693
60 1 0.875 0.875 0.625
50 1 0.252241 0.503481 0.750879
54 1 0.375 0.625 0.875
56 1 0.875 0.625 0.875
58 1 0.752905 0.511748 0.73827
49 1 0 0.75 0.75
53 1 0.125 0.875 0.875
57 1 0.494989 0.754502 0.758722
61 1 0.625 0.875 0.875
ITEM: TIMESTEP
1700
ITEM: NUMBER OF ATOMS
61
ITEM: BOX BOUNDS pp pp pp
0.0000000000000000e+00 1.0859999999999999e+01
0.0000000000000000e+00 1.0859999999999999e+01
0.0000000000000000e+00 1.0859999999999999e+01
ITEM: ATOMS id type xs ys zs
1 1 0 0 0
5 1 0.125 0.125 0.125
9 1 0.5 0 0
13 1 0.625 0.125 0.125
4 1 0.25 0.25 0
8 1 0.375 0.375 0.125
12 1 0.75 0.25 0
16 1 0.875 0.375 0.125
3 1 0.25 0 0.25
7 1 0.375 0.125 0.375
11 1 0.75 0 0.25
15 1 0.875 0.125 0.375
2 1 0 0.25 0.25
6 1 0.125 0.375 0.375
10 1 0.501425 0.253427 0.258954
14 1 0.623381 0.369111 0.368659
17 1 0 0 0.5
21 1 0.125 0.125 0.625
25 1 0.5 0 0.5
29 1 0.625 0.125 0.625
24 1 0.384171 0.377568 0.622693
20 1 0.875 0.375 0.625
28 1 0.748595 0.253914 0.49528
19 1 0.25 0 0.75
23 1 0.375 0.125 0.875
27 1 0.75 0 0.75
31 1 0.875 0.125 0.875
18 1 0 0.25 0.75
22 1 0.125 0.375 0.875
26 1 0.504594 0.247284 0.754146
30 1 0.625 0.375 0.875
32 1 0 0.5 0
36 1 0.125 0.625 0.125
40 1 0.5 0.5 0
44 1 0.625 0.625 0.125
35 1 0.25 0.75 0
39 1 0.375 0.875 0.125
43 1 0.75 0.75 0
47 1 0.875 0.875 0.125
34 1 0.254175 0.492747 0.246722
38 1 0.38277 0.621015 0.375245
42 1 0.759604 0.500764 0.256356
46 1 0.875 0.625 0.375
33 1 0 0.75 0.25
37 1 0.125 0.875 0.375
41 1 0.510842 0.758221 0.245826
45 1 0.625 0.875 0.375
48 1 0 0.5 0.5
52 1 0.125 0.625 0.625
51 1 0.252293 0.751069 0.50884
55 1 0.375 0.875 0.625
59 1 0.755972 0.760376 0.490351
60 1 0.875 0.875 0.625
50 1 0.26009 0.498624 0.748412
54 1 0.375 0.625 0.875
56 1 0.875 0.625 0.875
58 1 0.747227 0.509627 0.74355
49 1 0 0.75 0.75
53 1 0.125 0.875 0.875
57 1 0.489911 0.757988 0.752464
61 1 0.625 0.875 0.875
ITEM: TIMESTEP
1800
ITEM: NUMBER OF ATOMS
61
ITEM: BOX BOUNDS pp pp pp
0.0000000000000000e+00 1.0859999999999999e+01
0.0000000000000000e+00 1.0859999999999999e+01
0.0000000000000000e+00 1.0859999999999999e+01
ITEM: ATOMS id type xs ys zs
1 1 0 0 0
5 1 0.125 0.125 0.125
9 1 0.5 0 0
13 1 0.625 0.125 0.125
4 1 0.25 0.25 0
8 1 0.375 0.375 0.125
12 1 0.75 0.25 0
16 1 0.875 0.375 0.125
3 1 0.25 0 0.25
7 1 0.375 0.125 0.375
11 1 0.75 0 0.25
15 1 0.875 0.125 0.375
2 1 0 0.25 0.25
6 1 0.125 0.375 0.375
10 1 0.496492 0.255631 0.258081
14 1 0.621529 0.374908 0.370987
17 1 0 0 0.5
21 1 0.125 0.125 0.625
25 1 0.5 0 0.5
29 1 0.625 0.125 0.625
24 1 0.388333 0.376074 0.627952
20 1 0.875 0.375 0.625
28 1 0.75148 0.24487 0.483758
19 1 0.25 0 0.75
23 1 0.375 0.125 0.875
27 1 0.75 0 0.75
31 1 0.875 0.125 0.875
18 1 0 0.25 0.75
22 1 0.125 0.375 0.875
26 1 0.507103 0.246661 0.752728
30 1 0.625 0.375 0.875
32 1 0 0.5 0
36 1 0.125 0.625 0.125
40 1 0.5 0.5 0
44 1 0.625 0.625 0.125
35 1 0.25 0.75 0
39 1 0.375 0.875 0.125
43 1 0.75 0.75 0
47 1 0.875 0.875 0.125
34 1 0.257063 0.494032 0.248339