ITEM: TIMESTEP
0
ITEM: NUMBER OF ATOMS
61
ITEM: BOX BOUNDS pp pp pp
0.0000000000000000e+00 1.0859999999999999e+01
0.0000000000000000e+00 1.0859999999999999e+01
0.0000000000000000e+00 1.0859999999999999e+01
ITEM: ATOMS id type xs ys zs
1 1 0 0 0
5 1 0.125 0.125 0.125
9 1 0.5 0 0
13 1 0.625 0.125 0.125
4 1 0.25 0.25 0
8 1 0.375 0.375 0.125
12 1 0.75 0.25 0
14 1 0.875 0.375 0.125
3 1 0.25 0 0.25
7 1 0.375 0.125 0.375
11 1 0.75 0 0.25
15 1 0.875 0.125 0.375
2 1 0 0.25 0.25
6 1 0.125 0.375 0.375
10 1 0.5 0.25 0.25
16 1 0 0 0.5
20 1 0.125 0.125 0.625
24 1 0.5 0 0.5
28 1 0.625 0.125 0.625
23 1 0.375 0.375 0.625
19 1 0.875 0.375 0.625
27 1 0.75 0.25 0.5
18 1 0.25 0 0.75
22 1 0.375 0.125 0.875
26 1 0.75 0 0.75
30 1 0.875 0.125 0.875
17 1 0 0.25 0.75
21 1 0.125 0.375 0.875
25 1 0.5 0.25 0.75
29 1 0.625 0.375 0.875
31 1 0 0.5 0
35 1 0.125 0.625 0.125
39 1 0.5 0.5 0
43 1 0.625 0.625 0.125
34 1 0.25 0.75 0
38 1 0.375 0.875 0.125
42 1 0.75 0.75 0
46 1 0.875 0.875 0.125
33 1 0.25 0.5 0.25
37 1 0.375 0.625 0.375
41 1 0.75 0.5 0.25
45 1 0.875 0.625 0.375
32 1 0 0.75 0.25
36 1 0.125 0.875 0.375
40 1 0.5 0.75 0.25
44 1 0.625 0.875 0.375
47 1 0 0.5 0.5
51 1 0.125 0.625 0.625
55 1 0.5 0.5 0.5
50 1 0.25 0.75 0.5
54 1 0.375 0.875 0.625
58 1 0.75 0.75 0.5
59 1 0.875 0.875 0.625
49 1 0.25 0.5 0.75
53 1 0.375 0.625 0.875
57 1 0.75 0.5 0.75
61 1 0.875 0.625 0.875
48 1 0 0.75 0.75
52 1 0.125 0.875 0.875
56 1 0.5 0.75 0.75
60 1 0.625 0.875 0.875
ITEM: TIMESTEP
100
ITEM: NUMBER OF ATOMS
61
ITEM: BOX BOUNDS pp pp pp
0.0000000000000000e+00 1.0859999999999999e+01
0.0000000000000000e+00 1.0859999999999999e+01
0.0000000000000000e+00 1.0859999999999999e+01
ITEM: ATOMS id type xs ys zs
1 1 0 0 0
5 1 0.125 0.125 0.125
9 1 0.5 0 0
13 1 0.625 0.125 0.125
4 1 0.25 0.25 0
8 1 0.375 0.375 0.125
12 1 0.75 0.25 0
14 1 0.875 0.375 0.125
3 1 0.25 0 0.25
7 1 0.375 0.125 0.375
11 1 0.75 0 0.25
15 1 0.875 0.125 0.375
2 1 0 0.25 0.25
6 1 0.125 0.375 0.375
10 1 0.494433 0.24748 0.25223
16 1 0 0 0.5
20 1 0.125 0.125 0.625
24 1 0.5 0 0.5
28 1 0.625 0.125 0.625
23 1 0.368742 0.374874 0.62263
19 1 0.875 0.375 0.625
27 1 0.761046 0.250906 0.502554
18 1 0.25 0 0.75
22 1 0.375 0.125 0.875
26 1 0.75 0 0.75
30 1 0.875 0.125 0.875
17 1 0 0.25 0.75
21 1 0.125 0.375 0.875
25 1 0.49558 0.248789 0.752933
29 1 0.625 0.375 0.875
31 1 0 0.5 0
35 1 0.125 0.625 0.125
39 1 0.5 0.5 0
43 1 0.625 0.625 0.125
34 1 0.25 0.75 0
38 1 0.375 0.875 0.125
42 1 0.75 0.75 0
46 1 0.875 0.875 0.125
33 1 0.242578 0.505459 0.248103
37 1 0.378145 0.626711 0.381705
41 1 0.760039 0.50234 0.247362
45 1 0.875 0.625 0.375
32 1 0 0.75 0.25
36 1 0.125 0.875 0.375
40 1 0.505187 0.747078 0.242851
44 1 0.625 0.875 0.375
47 1 0 0.5 0.5
51 1 0.125 0.625 0.625
55 1 0.50014 0.492824 0.504319
50 1 0.254314 0.751371 0.506053
54 1 0.375 0.875 0.625
58 1 0.742086 0.752183 0.49827
59 1 0.875 0.875 0.625
49 1 0.244093 0.493889 0.747773
53 1 0.375 0.625 0.875
57 1 0.748442 0.506611 0.742446
61 1 0.875 0.625 0.875
48 1 0 0.75 0.75
52 1 0.125 0.875 0.875
56 1 0.505352 0.748936 0.751202
60 1 0.625 0.875 0.875
ITEM: TIMESTEP
200
ITEM: NUMBER OF ATOMS
61
ITEM: BOX BOUNDS pp pp pp
0.0000000000000000e+00 1.0859999999999999e+01
0.0000000000000000e+00 1.0859999999999999e+01
0.0000000000000000e+00 1.0859999999999999e+01
ITEM: ATOMS id type xs ys zs
1 1 0 0 0
5 1 0.125 0.125 0.125
9 1 0.5 0 0
13 1 0.625 0.125 0.125
4 1 0.25 0.25 0
8 1 0.375 0.375 0.125
12 1 0.75 0.25 0
14 1 0.875 0.375 0.125
3 1 0.25 0 0.25
7 1 0.375 0.125 0.375
11 1 0.75 0 0.25
15 1 0.875 0.125 0.375
2 1 0 0.25 0.25
6 1 0.125 0.375 0.375
10 1 0.490526 0.245502 0.252412
16 1 0 0 0.5
20 1 0.125 0.125 0.625
24 1 0.5 0 0.5
28 1 0.625 0.125 0.625
23 1 0.364139 0.372822 0.621673
19 1 0.875 0.375 0.625
27 1 0.767592 0.249355 0.505153
18 1 0.25 0 0.75
22 1 0.375 0.125 0.875
26 1 0.75 0 0.75
30 1 0.875 0.125 0.875
17 1 0 0.25 0.75
21 1 0.125 0.375 0.875
25 1 0.492539 0.24911 0.753011
29 1 0.625 0.375 0.875
31 1 0 0.5 0
35 1 0.125 0.625 0.125
39 1 0.5 0.5 0
43 1 0.625 0.625 0.125
34 1 0.25 0.75 0
38 1 0.375 0.875 0.125
42 1 0.75 0.75 0
46 1 0.875 0.875 0.125
33 1 0.240382 0.508002 0.2492
37 1 0.381587 0.627004 0.38583
41 1 0.766516 0.505519 0.244057
45 1 0.875 0.625 0.375
32 1 0 0.75 0.25
36 1 0.125 0.875 0.375
40 1 0.506986 0.746481 0.24072
44 1 0.625 0.875 0.375
47 1 0 0.5 0.5
51 1 0.125 0.625 0.625
55 1 0.49942 0.486901 0.507505
50 1 0.255999 0.752078 0.509137
54 1 0.375 0.875 0.625
58 1 0.738302 0.753059 0.497571
59 1 0.875 0.875 0.625
49 1 0.240898 0.491379 0.746154
53 1 0.375 0.625 0.875
57 1 0.74697 0.510864 0.737457
61 1 0.875 0.625 0.875
48 1 0 0.75 0.75
52 1 0.125 0.875 0.875
56 1 0.507949 0.748352 0.751831
60 1 0.625 0.875 0.875
ITEM: TIMESTEP
300
ITEM: NUMBER OF ATOMS
61
ITEM: BOX BOUNDS pp pp pp
0.0000000000000000e+00 1.0859999999999999e+01
0.0000000000000000e+00 1.0859999999999999e+01
0.0000000000000000e+00 1.0859999999999999e+01
ITEM: ATOMS id type xs ys zs
1 1 0 0 0
5 1 0.125 0.125 0.125
9 1 0.5 0 0
13 1 0.625 0.125 0.125
4 1 0.25 0.25 0
8 1 0.375 0.375 0.125
12 1 0.75 0.25 0
14 1 0.875 0.375 0.125
3 1 0.25 0 0.25
7 1 0.375 0.125 0.375
11 1 0.75 0 0.25
15 1 0.875 0.125 0.375
2 1 0 0.25 0.25
6 1 0.125 0.375 0.375
10 1 0.490014 0.244853 0.24962
16 1 0 0 0.5
20 1 0.125 0.125 0.625
24 1 0.5 0 0.5
28 1 0.625 0.125 0.625
23 1 0.361081 0.368044 0.622339
19 1 0.875 0.375 0.625
27 1 0.766924 0.244672 0.507327
18 1 0.25 0 0.75
22 1 0.375 0.125 0.875
26 1 0.75 0 0.75
30 1 0.875 0.125 0.875
17 1 0 0.25 0.75
21 1 0.125 0.375 0.875
25 1 0.492066 0.251065 0.749843
29 1 0.625 0.375 0.875
31 1 0 0.5 0
35 1 0.125 0.625 0.125
39 1 0.5 0.5 0
43 1 0.625 0.625 0.125
34 1 0.25 0.75 0
38 1 0.375 0.875 0.125
42 1 0.75 0.75 0
46 1 0.875 0.875 0.125
33 1 0.245139 0.506705 0.253645
37 1 0.384705 0.625721 0.386713
41 1 0.767133 0.509496 0.240246
45 1 0.875 0.625 0.375
32 1 0 0.75 0.25
36 1 0.125 0.875 0.375
40 1 0.504397 0.748801 0.245122
44 1 0.625 0.875 0.375
47 1 0 0.5 0.5
51 1 0.125 0.625 0.625
55 1 0.498291 0.483052 0.508962
50 1 0.2542 0.751385 0.507597
54 1 0.375 0.875 0.625
58 1 0.740223 0.751693 0.49873
59 1 0.875 0.875 0.625
49 1 0.241685 0.493716 0.745643
53 1 0.375 0.625 0.875
57 1 0.745706 0.511904 0.736063
61 1 0.875 0.625 0.875
48 1 0 0.75 0.75
52 1 0.125 0.875 0.875
56 1 0.506801 0.748171 0.751366
60 1 0.625 0.875 0.875
ITEM: TIMESTEP
400
ITEM: NUMBER OF ATOMS
61
ITEM: BOX BOUNDS pp pp pp
0.0000000000000000e+00 1.0859999999999999e+01
0.0000000000000000e+00 1.0859999999999999e+01
0.0000000000000000e+00 1.0859999999999999e+01
ITEM: ATOMS id type xs ys zs
1 1 0 0 0
5 1 0.125 0.125 0.125
9 1 0.5 0 0
13 1 0.625 0.125 0.125
4 1 0.25 0.25 0
8 1 0.375 0.375 0.125
12 1 0.75 0.25 0
14 1 0.875 0.375 0.125
3 1 0.25 0 0.25
7 1 0.375 0.125 0.375
11 1 0.75 0 0.25
15 1 0.875 0.125 0.375
2 1 0 0.25 0.25
6 1 0.125 0.375 0.375
10 1 0.492826 0.245187 0.244795
16 1 0 0 0.5
20 1 0.125 0.125 0.625
24 1 0.5 0 0.5
28 1 0.625 0.125 0.625
23 1 0.359154 0.362465 0.623746
19 1 0.875 0.375 0.625
27 1 0.760134 0.238583 0.509211
18 1 0.25 0 0.75
22 1 0.375 0.125 0.875
26 1 0.75 0 0.75
30 1 0.875 0.125 0.875
17 1 0 0.25 0.75
21 1 0.125 0.375 0.875
25 1 0.494397 0.252962 0.745507
29 1 0.625 0.375 0.875
31 1 0 0.5 0
35 1 0.125 0.625 0.125
39 1 0.5 0.5 0
43 1 0.625 0.625 0.125
34 1 0.25 0.75 0
38 1 0.375 0.875 0.125
42 1 0.75 0.75 0
46 1 0.875 0.875 0.125
33 1 0.254474 0.50289 0.258968
37 1 0.386242 0.623322 0.385177
41 1 0.762634 0.513358 0.236689
45 1 0.875 0.625 0.375
32 1 0 0.75 0.25
36 1 0.125 0.875 0.375
40 1 0.499721 0.751943 0.253441
44 1 0.625 0.875 0.375
47 1 0 0.5 0.5
51 1 0.125 0.625 0.625
55 1 0.496827 0.480962 0.508936
50 1 0.250333 0.749525 0.502242
54 1 0.375 0.875 0.625
58 1 0.746847 0.748905 0.500948
59 1 0.875 0.875 0.625
49 1 0.246097 0.499146 0.74687
53 1 0.375 0.625 0.875
57 1 0.745049 0.509576 0.738568
61 1 0.875 0.625 0.875
48 1 0 0.75 0.75
52 1 0.125 0.875 0.875
56 1 0.502367 0.748624 0.750101
60 1 0.625 0.875 0.875
ITEM: TIMESTEP
500
ITEM: NUMBER OF ATOMS
61
ITEM: BOX BOUNDS pp pp pp
0.0000000000000000e+00 1.0859999999999999e+01
0.0000000000000000e+00 1.0859999999999999e+01
0.0000000000000000e+00 1.0859999999999999e+01
ITEM: ATOMS id type xs ys zs
1 1 0 0 0
5 1 0.125 0.125 0.125
9 1 0.5 0 0
13 1 0.625 0.125 0.125
4 1 0.25 0.25 0
8 1 0.375 0.375 0.125
12 1 0.75 0.25 0
14 1 0.875 0.375 0.125
3 1 0.25 0 0.25
7 1 0.375 0.125 0.375
11 1 0.75 0 0.25
15 1 0.875 0.125 0.375
2 1 0 0.25 0.25
6 1 0.125 0.375 0.375
10 1 0.497158 0.245623 0.24048
16 1 0 0 0.5
20 1 0.125 0.125 0.625
24 1 0.5 0 0.5
28 1 0.625 0.125 0.625
23 1 0.35787 0.358856 0.624868
19 1 0.875 0.375 0.625
27 1 0.751804 0.234745 0.510098
18 1 0.25 0 0.75
22 1 0.375 0.125 0.875
26 1 0.75 0 0.75
30 1 0.875 0.125 0.875
17 1 0 0.25 0.75
21 1 0.125 0.375 0.875
25 1 0.498933 0.252878 0.742982
29 1 0.625 0.375 0.875
31 1 0 0.5 0
35 1 0.125 0.625 0.125
39 1 0.5 0.5 0
43 1 0.625 0.625 0.125
34 1 0.25 0.75 0
38 1 0.375 0.875 0.125
42 1 0.75 0.75 0
46 1 0.875 0.875 0.125
33 1 0.263617 0.498091 0.261935
37 1 0.385361 0.62047 0.383312
41 1 0.75654 0.515067 0.235153
45 1 0.875 0.625 0.375
32 1 0 0.75 0.25
36 1 0.125 0.875 0.375
40 1 0.496149 0.753594 0.260885
44 1 0.625 0.875 0.375
47 1 0 0.5 0.5
51 1 0.125 0.625 0.625
55 1 0.494793 0.479821 0.508119
50 1 0.247008 0.74734 0.496001
54 1 0.375 0.875 0.625
58 1 0.755126 0.746544 0.502619
59 1 0.875 0.875 0.625
49 1 0.251993 0.504455 0.749623
53 1 0.375 0.625 0.875
57 1 0.745473 0.504325 0.744597
61 1 0.875 0.625 0.875
48 1 0 0.75 0.75
52 1 0.125 0.875 0.875
56 1 0.49644 0.749995 0.748997
60 1 0.625 0.875 0.875
ITEM: TIMESTEP
600
ITEM: NUMBER OF ATOMS
61
ITEM: BOX BOUNDS pp pp pp
0.0000000000000000e+00 1.0859999999999999e+01
0.0000000000000000e+00 1.0859999999999999e+01
0.0000000000000000e+00 1.0859999999999999e+01
ITEM: ATOMS id type xs ys zs
1 1 0 0 0
5 1 0.125 0.125 0.125
9 1 0.5 0 0
13 1 0.625 0.125 0.125
4 1 0.25 0.25 0
8 1 0.375 0.375 0.125
12 1 0.75 0.25 0
14 1 0.875 0.375 0.125
3 1 0.25 0 0.25
7 1 0.375 0.125 0.375
11 1 0.75 0 0.25
15 1 0.875 0.125 0.375
2 1 0 0.25 0.25
6 1 0.125 0.375 0.375
10 1 0.50056 0.245944 0.239248
16 1 0 0 0.5
20 1 0.125 0.125 0.625
24 1 0.5 0 0.5
28 1 0.625 0.125 0.625
23 1 0.357356 0.358281 0.625892
19 1 0.875 0.375 0.625
27 1 0.747051 0.236461 0.508056
18 1 0.25 0 0.75
22 1 0.375 0.125 0.875
26 1 0.75 0 0.75
30 1 0.875 0.125 0.875
17 1 0 0.25 0.75
21 1 0.125 0.375 0.875
25 1 0.503779 0.25068 0.74388
29 1 0.625 0.375 0.875
31 1 0 0.5 0
35 1 0.125 0.625 0.125
39 1 0.5 0.5 0
43 1 0.625 0.625 0.125
34 1 0.25 0.75 0
38 1 0.375 0.875 0.125
42 1 0.75 0.75 0
46 1 0.875 0.875 0.125
33 1 0.267893 0.493121 0.260967
37 1 0.382681 0.617915 0.383215
41 1 0.752642 0.51261 0.237566
45 1 0.875 0.625 0.375
32 1 0 0.75 0.25
36 1 0.125 0.875 0.375
40 1 0.495158 0.753032 0.263546
44 1 0.625 0.875 0.375
47 1 0 0.5 0.5
51 1 0.125 0.625 0.625
55 1 0.492068 0.479065 0.50713
50 1 0.246196 0.745481 0.492159
54 1 0.375 0.875 0.625
58 1 0.761269 0.746135 0.502718
59 1 0.875 0.875 0.625
49 1 0.256014 0.506636 0.752024
53 1 0.375 0.625 0.875
57 1 0.747566 0.497473 0.752721
61 1 0.875 0.625 0.875
48 1 0 0.75 0.75
52 1 0.125 0.875 0.875
56 1 0.491572 0.752135 0.749241
60 1 0.625 0.875 0.875
ITEM: TIMESTEP
700
ITEM: NUMBER OF ATOMS
61
ITEM: BOX BOUNDS pp pp pp
0.0000000000000000e+00 1.0859999999999999e+01
0.0000000000000000e+00 1.0859999999999999e+01
0.0000000000000000e+00 1.0859999999999999e+01
ITEM: ATOMS id type xs ys zs
1 1 0 0 0
5 1 0.125 0.125 0.125
9 1 0.5 0 0
13 1 0.625 0.125 0.125
4 1 0.25 0.25 0
8 1 0.375 0.375 0.125
12 1 0.75 0.25 0
14 1 0.875 0.375 0.125
3 1 0.25 0 0.25
7 1 0.375 0.125 0.375
11 1 0.75 0 0.25
15 1 0.875 0.125 0.375
2 1 0 0.25 0.25
6 1 0.125 0.375 0.375
10 1 0.501355 0.24652 0.242156
16 1 0 0 0.5
20 1 0.125 0.125 0.625
24 1 0.5 0 0.5
28 1 0.625 0.125 0.625
23 1 0.358494 0.359926 0.627861
19 1 0.875 0.375 0.625
27 1 0.74744 0.24403 0.502746
18 1 0.25 0 0.75
22 1 0.375 0.125 0.875
26 1 0.75 0 0.75
30 1 0.875 0.125 0.875
17 1 0 0.25 0.75
21 1 0.125 0.375 0.875
25 1 0.506138 0.247846 0.747854
29 1 0.625 0.375 0.875
31 1 0 0.5 0
35 1 0.125 0.625 0.125
39 1 0.5 0.5 0
43 1 0.625 0.625 0.125
34 1 0.25 0.75 0
38 1 0.375 0.875 0.125
42 1 0.75 0.75 0
46 1 0.875 0.875 0.125
33 1 0.264684 0.489765 0.257045
37 1 0.379396 0.616152 0.384367
41 1 0.751812 0.506013 0.244006
45 1 0.875 0.625 0.375
32 1 0 0.75 0.25
36 1 0.125 0.875 0.375
40 1 0.49662 0.750186 0.260379
44 1 0.625 0.875 0.375
47 1 0 0.5 0.5
51 1 0.125 0.625 0.625
55 1 0.488963 0.47843 0.506314
50 1 0.248039 0.744591 0.492782
54 1 0.375 0.875 0.625
58 1 0.76246 0.748285 0.501015
59 1 0.875 0.875 0.625
49 1 0.255572 0.504302 0.752268
53 1 0.375 0.625 0.875
57 1 0.752076 0.491168 0.760357
61 1 0.875 0.625 0.875
48 1 0 0.75 0.75
52 1 0.125 0.875 0.875
56 1 0.489882 0.7545 0.751599
60 1 0.625 0.875 0.875
ITEM: TIMESTEP
800
ITEM: NUMBER OF ATOMS
61
ITEM: BOX BOUNDS pp pp pp
0.0000000000000000e+00 1.0859999999999999e+01
0.0000000000000000e+00 1.0859999999999999e+01
0.0000000000000000e+00 1.0859999999999999e+01
ITEM: ATOMS id type xs ys zs
1 1 0 0 0
5 1 0.125 0.125 0.125
9 1 0.5 0 0
13 1 0.625 0.125 0.125
4 1 0.25 0.25 0
8 1 0.375 0.375 0.125
12 1 0.75 0.25 0
14 1 0.875 0.375 0.125
3 1 0.25 0 0.25
7 1 0.375 0.125 0.375
11 1 0.75 0 0.25
15 1 0.875 0.125 0.375
2 1 0 0.25 0.25
6 1 0.125 0.375 0.375
10 1 0.499537 0.247477 0.248146
16 1 0 0 0.5
20 1 0.125 0.125 0.625
24 1 0.5 0 0.5
28 1 0.625 0.125 0.625
23 1 0.361973 0.362189 0.631342
19 1 0.875 0.375 0.625
27 1 0.750673 0.25427 0.496483
18 1 0.25 0 0.75
22 1 0.375 0.125 0.875
26 1 0.75 0 0.75
30 1 0.875 0.125 0.875
17 1 0 0.25 0.75
21 1 0.125 0.375 0.875
25 1 0.504528 0.245861 0.753142
29 1 0.625 0.375 0.875
31 1 0 0.5 0
35 1 0.125 0.625 0.125
39 1 0.5 0.5 0
43 1 0.625 0.625 0.125
34 1 0.25 0.75 0
38 1 0.375 0.875 0.125
42 1 0.75 0.75 0
46 1 0.875 0.875 0.125
33 1 0.254606 0.490698 0.252273
37 1 0.376208 0.615025 0.38388
41 1 0.752131 0.497686 0.252216
45 1 0.875 0.625 0.375
32 1 0 0.75 0.25
36 1 0.125 0.875 0.375
40 1 0.499612 0.74554 0.253272
44 1 0.625 0.875 0.375
47 1 0 0.5 0.5
51 1 0.125 0.625 0.625
55 1 0.486201 0.47795 0.50558
50 1 0.251174 0.745515 0.498012
54 1 0.375 0.875 0.625
58 1 0.758201 0.752639 0.497662
59 1 0.875 0.875 0.625
49 1 0.250616 0.498904 0.750742
53 1 0.375 0.625 0.875
57 1 0.759171 0.487136 0.76498
61 1 0.875 0.625 0.875
48 1 0 0.75 0.75
52 1 0.125 0.875 0.875
56 1 0.491833 0.75657 0.755693
60 1 0.625 0.875 0.875
ITEM: TIMESTEP
900
ITEM: NUMBER OF ATOMS
61
ITEM: BOX BOUNDS pp pp pp
0.0000000000000000e+00 1.0859999999999999e+01
0.0000000000000000e+00 1.0859999999999999e+01
0.0000000000000000e+00 1.0859999999999999e+01
ITEM: ATOMS id type xs ys zs
1 1 0 0 0
5 1 0.125 0.125 0.125
9 1 0.5 0 0
13 1 0.625 0.125 0.125
4 1 0.25 0.25 0
8 1 0.375 0.375 0.125
12 1 0.75 0.25 0
14 1 0.875 0.375 0.125
3 1 0.25 0 0.25
7 1 0.375 0.125 0.375
11 1 0.75 0 0.25
15 1 0.875 0.125 0.375
2 1 0 0.25 0.25
6 1 0.125 0.375 0.375
10 1 0.496625 0.248736 0.254536
16 1 0 0 0.5
20 1 0.125 0.125 0.625
24 1 0.5 0 0.5
28 1 0.625 0.125 0.625
23 1 0.367496 0.363719 0.635878
19 1 0.875 0.375 0.625
27 1 0.753567 0.263115 0.491589
18 1 0.25 0 0.75
22 1 0.375 0.125 0.875
26 1 0.75 0 0.75
30 1 0.875 0.125 0.875
17 1 0 0.25 0.75
21 1 0.125 0.375 0.875
25 1 0.5003 0.245422 0.757185
29 1 0.625 0.375 0.875
31 1 0 0.5 0
35 1 0.125 0.625 0.125
39 1 0.5 0.5 0
43 1 0.625 0.625 0.125
34 1 0.25 0.75 0
38 1 0.375 0.875 0.125
42 1 0.75 0.75 0
46 1 0.875 0.875 0.125
33 1 0.241783 0.496383 0.24748
37 1 0.37311 0.614497 0.380156
41 1 0.751685 0.490491 0.259398
45 1 0.875 0.625 0.375
32 1 0 0.75 0.25
36 1 0.125 0.875 0.375
40 1 0.502225 0.741159 0.246173
44 1 0.625 0.875 0.375
47 1 0 0.5 0.5
51 1 0.125 0.625 0.625
55 1 0.484443 0.478082 0.504239
50 1 0.25393 0.748147 0.5052
54 1 0.375 0.875 0.625
58 1 0.751002 0.757608 0.493625
59 1 0.875 0.875 0.625
49 1 0.243969 0.493879 0.749247
53 1 0.375 0.625 0.875
57 1 0.766983 0.485318 0.765883
61 1 0.875 0.625 0.875
48 1 0 0.75 0.75
52 1 0.125 0.875 0.875
56 1 0.495769 0.757847 0.759646
60 1 0.625 0.875 0.875
ITEM: TIMESTEP
1000
ITEM: NUMBER OF ATOMS
61
ITEM: BOX BOUNDS pp pp pp
0.0000000000000000e+00 1.0859999999999999e+01
0.0000000000000000e+00 1.0859999999999999e+01
0.0000000000000000e+00 1.0859999999999999e+01
ITEM: ATOMS id type xs ys zs
1 1 0 0 0
5 1 0.125 0.125 0.125
9 1 0.5 0 0
13 1 0.625 0.125 0.125
4 1 0.25 0.25 0
8 1 0.375 0.375 0.125
12 1 0.75 0.25 0
14 1 0.875 0.375 0.125
3 1 0.25 0 0.25
7 1 0.375 0.125 0.375
11 1 0.75 0 0.25
15 1 0.875 0.125 0.375
2 1 0 0.25 0.25
6 1 0.125 0.375 0.375
10 1 0.494617 0.250462 0.25853
16 1 0 0 0.5
20 1 0.125 0.125 0.625
24 1 0.5 0 0.5
28 1 0.625 0.125 0.625
23 1 0.373324 0.364719 0.640148
19 1 0.875 0.375 0.625
27 1 0.754163 0.267922 0.488804
18 1 0.25 0 0.75
22 1 0.375 0.125 0.875
26 1 0.75 0 0.75
30 1 0.875 0.125 0.875
17 1 0 0.25 0.75
21 1 0.125 0.375 0.875
25 1 0.496966 0.246347 0.758209
29 1 0.625 0.375 0.875
31 1 0 0.5 0
35 1 0.125 0.625 0.125
39 1 0.5 0.5 0
43 1 0.625 0.625 0.125
34 1 0.25 0.75 0
38 1 0.375 0.875 0.125
42 1 0.75 0.75 0
46 1 0.875 0.875 0.125
33 1 0.232576 0.503026 0.243811
37 1 0.369947 0.615074 0.374223
41 1 0.750091 0.486172 0.263759
45 1 0.875 0.625 0.375
32 1 0 0.75 0.25
36 1 0.125 0.875 0.375
40 1 0.502083 0.739905 0.243147
44 1 0.625 0.875 0.375
47 1 0 0.5 0.5
51 1 0.125 0.625 0.625
55 1 0.483754 0.479314 0.50141
50 1 0.254828 0.750647 0.509581
54 1 0.375 0.875 0.625
58 1 0.745515 0.760402 0.49123
59 1 0.875 0.875 0.625
49 1 0.2398 0.492036 0.748623
53 1 0.375 0.625 0.875
57 1 0.771886 0.484674 0.764397
61 1 0.875 0.625 0.875
48 1 0 0.75 0.75
52 1 0.125 0.875 0.875
56 1 0.498913 0.757582 0.76096
60 1 0.625 0.875 0.875
ITEM: TIMESTEP
1100
ITEM: NUMBER OF ATOMS
61
ITEM: BOX BOUNDS pp pp pp
0.0000000000000000e+00 1.0859999999999999e+01
0.0000000000000000e+00 1.0859999999999999e+01
0.0000000000000000e+00 1.0859999999999999e+01
ITEM: ATOMS id type xs ys zs
1 1 0 0 0
5 1 0.125 0.125 0.125
9 1 0.5 0 0
13 1 0.625 0.125 0.125
4 1 0.25 0.25 0
8 1 0.375 0.375 0.125
12 1 0.75 0.25 0
14 1 0.875 0.375 0.125
3 1 0.25 0 0.25
7 1 0.375 0.125 0.375
11 1 0.75 0 0.25
15 1 0.875 0.125 0.375
2 1 0 0.25 0.25
6 1 0.125 0.375 0.375
10 1 0.494787 0.252648 0.258639
16 1 0 0 0.5
20 1 0.125 0.125 0.625
24 1 0.5 0 0.5
28 1 0.625 0.125 0.625
23 1 0.377045 0.367285 0.642092
19 1 0.875 0.375 0.625
27 1 0.752023 0.267566 0.488238
18 1 0.25 0 0.75
22 1 0.375 0.125 0.875
26 1 0.75 0 0.75
30 1 0.875 0.125 0.875
17 1 0 0.25 0.75
21 1 0.125 0.375 0.875
25 1 0.497936 0.247349 0.75672
29 1 0.625 0.375 0.875
31 1 0 0.5 0
35 1 0.125 0.625 0.125
39 1 0.5 0.5 0
43 1 0.625 0.625 0.125
34 1 0.25 0.75 0
38 1 0.375 0.875 0.125
42 1 0.75 0.75 0
46 1 0.875 0.875 0.125
33 1 0.231802 0.505057 0.243767
37 1 0.367068 0.617332 0.368147
41 1 0.747914 0.485485 0.264488
45 1 0.875 0.625 0.375
32 1 0 0.75 0.25
36 1 0.125 0.875 0.375
40 1 0.498649 0.74298 0.245585
44 1 0.625 0.875 0.375
47 1 0 0.5 0.5
51 1 0.125 0.625 0.625
55 1 0.483558 0.48165 0.496778
50 1 0.253027 0.751102 0.507909
54 1 0.375 0.875 0.625
58 1 0.745308 0.75876 0.492622
59 1 0.875 0.875 0.625
49 1 0.240828 0.494155 0.748835
53 1 0.375 0.625 0.875
57 1 0.771042 0.484947 0.762482
61 1 0.875 0.625 0.875
48 1 0 0.75 0.75
52 1 0.125 0.875 0.875
56 1 0.4995 0.75535 0.758315
60 1 0.625 0.875 0.875
ITEM: TIMESTEP
1200
ITEM: NUMBER OF ATOMS
61
ITEM: BOX BOUNDS pp pp pp
0.0000000000000000e+00 1.0859999999999999e+01
0.0000000000000000e+00 1.0859999999999999e+01
0.0000000000000000e+00 1.0859999999999999e+01
ITEM: ATOMS id type xs ys zs
1 1 0 0 0
5 1 0.125 0.125 0.125
9 1 0.5 0 0
13 1 0.625 0.125 0.125
4 1 0.25 0.25 0
8 1 0.375 0.375 0.125
12 1 0.75 0.25 0
14 1 0.875 0.375 0.125
3 1 0.25 0 0.25
7 1 0.375 0.125 0.375
11 1 0.75 0 0.25
15 1 0.875 0.125 0.375
2 1 0 0.25 0.25
6 1 0.125 0.375 0.375
10 1 0.497108 0.25442 0.255115
16 1 0 0 0.5
20 1 0.125 0.125 0.625
24 1 0.5 0 0.5
28 1 0.625 0.125 0.625
23 1 0.377966 0.372712 0.640255
19 1 0.875 0.375 0.625
27 1 0.747971 0.262116 0.490309
18 1 0.25 0 0.75
22 1 0.375 0.125 0.875
26 1 0.75 0 0.75
30 1 0.875 0.125 0.875
17 1 0 0.25 0.75
21 1 0.125 0.375 0.875
25 1 0.503331 0.247277 0.754223
29 1 0.625 0.375 0.875
31 1 0 0.5 0
35 1 0.125 0.625 0.125
39 1 0.5 0.5 0
43 1 0.625 0.625 0.125
34 1 0.25 0.75 0
38 1 0.375 0.875 0.125
42 1 0.75 0.75 0
46 1 0.875 0.875 0.125
33 1 0.239548 0.500686 0.24709
37 1 0.365207 0.621244 0.364651
41 1 0.745881 0.488664 0.261347
45 1 0.875 0.625 0.375
32 1 0 0.75 0.25
36 1 0.125 0.875 0.375
40 1 0.494382 0.748947 0.251035
44 1 0.625 0.875 0.375
47 1 0 0.5 0.5
51 1 0.125 0.625 0.625
55 1 0.483163 0.484949 0.490588
50 1 0.249273 0.749476 0.500748
54 1 0.375 0.875 0.625
58 1 0.750089 0.753246 0.49729
59 1 0.875 0.875 0.625
49 1 0.246733 0.499353 0.750355
53 1 0.375 0.625 0.875
57 1 0.764247 0.486791 0.760968
61 1 0.875 0.625 0.875
48 1 0 0.75 0.75
52 1 0.125 0.875 0.875
56 1 0.497986 0.751841 0.752617
60 1 0.625 0.875 0.875
ITEM: TIMESTEP
1300
ITEM: NUMBER OF ATOMS
61
ITEM: BOX BOUNDS pp pp pp
0.0000000000000000e+00 1.0859999999999999e+01
0.0000000000000000e+00 1.0859999999999999e+01
0.0000000000000000e+00 1.0859999999999999e+01
ITEM: ATOMS id type xs ys zs
1 1 0 0 0
5 1 0.125 0.125 0.125
9 1 0.5 0 0
13 1 0.625 0.125 0.125
4 1 0.25 0.25 0
8 1 0.375 0.375 0.125
12 1 0.75 0.25 0
14 1 0.875 0.375 0.125
3 1 0.25 0 0.25
7 1 0.375 0.125 0.375
11 1 0.75 0 0.25
15 1 0.875 0.125 0.375
2 1 0 0.25 0.25
6 1 0.125 0.375 0.375
10 1 0.500512 0.254408 0.249583
16 1 0 0 0.5
20 1 0.125 0.125 0.625
24 1 0.5 0 0.5
28 1 0.625 0.125 0.625
23 1 0.378071 0.37943 0.635359
19 1 0.875 0.375 0.625
27 1 0.743764 0.252809 0.495275
18 1 0.25 0 0.75
22 1 0.375 0.125 0.875
26 1 0.75 0 0.75
30 1 0.875 0.125 0.875
17 1 0 0.25 0.75
21 1 0.125 0.375 0.875
25 1 0.508923 0.246969 0.751458
29 1 0.625 0.375 0.875
31 1 0 0.5 0
35 1 0.125 0.625 0.125
39 1 0.5 0.5 0
43 1 0.625 0.625 0.125
34 1 0.25 0.75 0
38 1 0.375 0.875 0.125
42 1 0.75 0.75 0
46 1 0.875 0.875 0.125
33 1 0.250985 0.49315 0.249899
37 1 0.365167 0.626044 0.366007
41 1 0.744715 0.495309 0.254775
45 1 0.875 0.625 0.375
32 1 0 0.75 0.25
36 1 0.125 0.875 0.375
40 1 0.492402 0.755093 0.255425
44 1 0.625 0.875 0.375
47 1 0 0.5 0.5
51 1 0.125 0.625 0.625
55 1 0.482401 0.489031 0.483411
50 1 0.245484 0.747346 0.492136
54 1 0.375 0.875 0.625
58 1 0.756289 0.746798 0.502595
59 1 0.875 0.875 0.625
49 1 0.254108 0.505461 0.753186
53 1 0.375 0.625 0.875
57 1 0.754248 0.490953 0.75885
61 1 0.875 0.625 0.875
48 1 0 0.75 0.75
52 1 0.125 0.875 0.875
56 1 0.496268 0.748363 0.746416
60 1 0.625 0.875 0.875
ITEM: TIMESTEP
1400
ITEM: NUMBER OF ATOMS
61
ITEM: BOX BOUNDS pp pp pp
0.0000000000000000e+00 1.0859999999999999e+01
0.0000000000000000e+00 1.0859999999999999e+01
0.0000000000000000e+00 1.0859999999999999e+01
ITEM: ATOMS id type xs ys zs
1 1 0 0 0
5 1 0.125 0.125 0.125
9 1 0.5 0 0
13 1 0.625 0.125 0.125
4 1 0.25 0.25 0
8 1 0.375 0.375 0.125
12 1 0.75 0.25 0
14 1 0.875 0.375 0.125
3 1 0.25 0 0.25
7 1 0.375 0.125 0.375
11 1 0.75 0 0.25
15 1 0.875 0.125 0.375
2 1 0 0.25 0.25
6 1 0.125 0.375 0.375
10 1 0.503371 0.251998 0.244327
16 1 0 0 0.5
20 1 0.125 0.125 0.625
24 1 0.5 0 0.5
28 1 0.625 0.125 0.625
23 1 0.379453 0.385248 0.629388
19 1 0.875 0.375 0.625
27 1 0.741934 0.24258 0.501912
18 1 0.25 0 0.75
22 1 0.375 0.125 0.875
26 1 0.75 0 0.75
30 1 0.875 0.125 0.875
17 1 0 0.25 0.75
21 1 0.125 0.375 0.875
25 1 0.509864 0.248081 0.748996
29 1 0.625 0.375 0.875
31 1 0 0.5 0
35 1 0.125 0.625 0.125
39 1 0.5 0.5 0
43 1 0.625 0.625 0.125
34 1 0.25 0.75 0
38 1 0.375 0.875 0.125
42 1 0.75 0.75 0
46 1 0.875 0.875 0.125
33 1 0.259973 0.48741 0.251094
37 1 0.367266 0.63075 0.370086
41 1 0.745458 0.503741 0.246498
45 1 0.875 0.625 0.375
32 1 0 0.75 0.25
36 1 0.125 0.875 0.375
40 1 0.493858 0.75872 0.256277
44 1 0.625 0.875 0.375
47 1 0 0.5 0.5
51 1 0.125 0.625 0.625
55 1 0.481922 0.493035 0.476337
50 1 0.242919 0.746379 0.487556
54 1 0.375 0.875 0.625
58 1 0.759986 0.742139 0.506415
59 1 0.875 0.875 0.625
49 1 0.258307 0.509143 0.755144
53 1 0.375 0.625 0.875
57 1 0.745058 0.497551 0.754653
61 1 0.875 0.625 0.875
48 1 0 0.75 0.75
52 1 0.125 0.875 0.875
56 1 0.496024 0.745841 0.742237
60 1 0.625 0.875 0.875
ITEM: TIMESTEP
1500
ITEM: NUMBER OF ATOMS
61
ITEM: BOX BOUNDS pp pp pp
0.0000000000000000e+00 1.0859999999999999e+01
0.0000000000000000e+00 1.0859999999999999e+01
0.0000000000000000e+00 1.0859999999999999e+01
ITEM: ATOMS id type xs ys zs
1 1 0 0 0
5 1 0.125 0.125 0.125
9 1 0.5 0 0
13 1 0.625 0.125 0.125
4 1 0.25 0.25 0
8 1 0.375 0.375 0.125
12 1 0.75 0.25 0
14 1 0.875 0.375 0.125
3 1 0.25 0 0.25
7 1 0.375 0.125 0.375
11 1 0.75 0 0.25
15 1 0.875 0.125 0.375
2 1 0 0.25 0.25
6 1 0.125 0.375 0.375
10 1 0.503901 0.248012 0.241512
16 1 0 0 0.5
20 1 0.125 0.125 0.625
24 1 0.5 0 0.5
28 1 0.625 0.125 0.625
23 1 0.382342 0.389233 0.624201
19 1 0.875 0.375 0.625
27 1 0.745281 0.23579 0.507304
18 1 0.25 0 0.75
22 1 0.375 0.125 0.875
26 1 0.75 0 0.75
30 1 0.875 0.125 0.875
17 1 0 0.25 0.75
21 1 0.125 0.375 0.875
25 1 0.504762 0.251174 0.747154
29 1 0.625 0.375 0.875
31 1 0 0.5 0
35 1 0.125 0.625 0.125
39 1 0.5 0.5 0
43 1 0.625 0.625 0.125
34 1 0.25 0.75 0
38 1 0.375 0.875 0.125
42 1 0.75 0.75 0
46 1 0.875 0.875 0.125
33 1 0.262709 0.487567 0.253142
37 1 0.370706 0.634894 0.371739
41 1 0.749545 0.510929 0.239533
45 1 0.875 0.625 0.375
32 1 0 0.75 0.25
36 1 0.125 0.875 0.375
40 1 0.49804 0.758158 0.253293
44 1 0.625 0.875 0.375
47 1 0 0.5 0.5
51 1 0.125 0.625 0.625
55 1 0.483242 0.495393 0.470931
50 1 0.241986 0.747494 0.490679
54 1 0.375 0.875 0.625
58 1 0.759136 0.740552 0.507974
59 1 0.875 0.875 0.625
49 1 0.256735 0.507866 0.753704
53 1 0.375 0.625 0.875
57 1 0.739257 0.505284 0.748519
61 1 0.875 0.625 0.875
48 1 0 0.75 0.75
52 1 0.125 0.875 0.875
56 1 0.497763 0.744729 0.741428
60 1 0.625 0.875 0.875
ITEM: TIMESTEP
1600
ITEM: NUMBER OF ATOMS
61
ITEM: BOX BOUNDS pp pp pp
0.0000000000000000e+00 1.0859999999999999e+01
0.0000000000000000e+00 1.0859999999999999e+01
0.0000000000000000e+00 1.0859999999999999e+01
ITEM: ATOMS id type xs ys zs
1 1 0 0 0
5 1 0.125 0.125 0.125
9 1 0.5 0 0
13 1 0.625 0.125 0.125
4 1 0.25 0.25 0
8 1 0.375 0.375 0.125
12 1 0.75 0.25 0
14 1 0.875 0.375 0.125
3 1 0.25 0 0.25
7 1 0.375 0.125 0.375
11 1 0.75 0 0.25
15 1 0.875 0.125 0.375
2 1 0 0.25 0.25
6 1 0.125 0.375 0.375
10 1 0.500905 0.244088 0.242265
16 1 0 0 0.5
20 1 0.125 0.125 0.625
24 1 0.5 0 0.5
28 1 0.625 0.125 0.625
23 1 0.3853 0.3912 0.620858
19 1 0.875 0.375 0.625
27 1 0.754664 0.235206 0.509547
18 1 0.25 0 0.75
22 1 0.375 0.125 0.875
26 1 0.75 0 0.75
30 1 0.875 0.125 0.875
17 1 0 0.25 0.75
21 1 0.125 0.375 0.875
25 1 0.496495 0.255189 0.745795
29 1 0.625 0.375 0.875
31 1 0 0.5 0
35 1 0.125 0.625 0.125
39 1 0.5 0.5 0
43 1 0.625 0.625 0.125
34 1 0.25 0.75 0
38 1 0.375 0.875 0.125
42 1 0.75 0.75 0
46 1 0.875 0.875 0.125
33 1 0.25898 0.494191 0.256273
37 1 0.373578 0.638722 0.369593
41 1 0.757568 0.514374 0.236261
45 1 0.875 0.625 0.375
32 1 0 0.75 0.25
36 1 0.125 0.875 0.375
40 1 0.503571 0.754129 0.247513
44 1 0.625 0.875 0.375
47 1 0 0.5 0.5
51 1 0.125 0.625 0.625
55 1 0.487542 0.495249 0.467837
50 1 0.243748 0.750771 0.500177
54 1 0.375 0.875 0.625
58 1 0.753933 0.742315 0.506959
59 1 0.875 0.875 0.625
49 1 0.250858 0.502497 0.749219
53 1 0.375 0.625 0.875
57 1 0.737451 0.511829 0.742272
61 1 0.875 0.625 0.875
48 1 0 0.75 0.75
52 1 0.125 0.875 0.875
56 1 0.50085 0.745332 0.744089
60 1 0.625 0.875 0.875
ITEM: TIMESTEP
1700
ITEM: NUMBER OF ATOMS
61
ITEM: BOX BOUNDS pp pp pp
0.0000000000000000e+00 1.0859999999999999e+01
0.0000000000000000e+00 1.0859999999999999e+01
0.0000000000000000e+00 1.0859999999999999e+01
ITEM: ATOMS id type xs ys zs
1 1 0 0 0
5 1 0.125 0.125 0.125
9 1 0.5 0 0
13 1 0.625 0.125 0.125
4 1 0.25 0.25 0
8 1 0.375 0.375 0.125
12 1 0.75 0.25 0
14 1 0.875 0.375 0.125
3 1 0.25 0 0.25
7 1 0.375 0.125 0.375
11 1 0.75 0 0.25
15 1 0.875 0.125 0.375
2 1 0 0.25 0.25
6 1 0.125 0.375 0.375
10 1 0.49502 0.241582 0.245745
16 1 0 0 0.5
20 1 0.125 0.125 0.625
24 1 0.5 0 0.5
28 1 0.625 0.125 0.625
23 1 0.386362 0.39164 0.619104
19 1 0.875 0.375 0.625
27 1 0.766325 0.239484 0.509842
18 1 0.25 0 0.75
22 1 0.375 0.125 0.875
26 1 0.75 0 0.75
30 1 0.875 0.125 0.875
17 1 0 0.25 0.75
21 1 0.125 0.375 0.875
25 1 0.490086 0.258045 0.74521
29 1 0.625 0.375 0.875
31 1 0 0.5 0
35 1 0.125 0.625 0.125
39 1 0.5 0.5 0
43 1 0.625 0.625 0.125
34 1 0.25 0.75 0
38 1 0.375 0.875 0.125
42 1 0.75 0.75 0
46 1 0.875 0.875 0.125
33 1 0.25138 0.504073 0.257498
37 1 0.374715 0.641757 0.366844
41 1 0.767046 0.51421 0.236331
45 1 0.875 0.625 0.375
32 1 0 0.75 0.25
36 1 0.125 0.875 0.375
40 1 0.508465 0.750128 0.241405
44 1 0.625 0.875 0.375
47 1 0 0.5 0.5
51 1 0.125 0.625 0.625
55 1 0.494137 0.493609 0.466132
50 1 0.248509 0.755316 0.510453
54 1 0.375 0.875 0.625
58 1 0.746456 0.746911 0.50334
59 1 0.875 0.875 0.625
49 1 0.244696 0.496497 0.744278
53 1 0.375 0.625 0.875
57 1 0.73919 0.515205 0.737816
61 1 0.875 0.625 0.875
48 1 0 0.75 0.75
52 1 0.125 0.875 0.875
56 1 0.503866 0.747695 0.749191
60 1 0.625 0.875 0.875
ITEM: TIMESTEP
1800
ITEM: NUMBER OF ATOMS
61
ITEM: BOX BOUNDS pp pp pp
0.0000000000000000e+00 1.0859999999999999e+01
0.0000000000000000e+00 1.0859999999999999e+01
0.0000000000000000e+00 1.0859999999999999e+01
ITEM: ATOMS id type xs ys zs
1 1 0 0 0
5 1 0.125 0.125 0.125
9 1 0.5 0 0
13 1 0.625 0.125 0.125
4 1 0.25 0.25 0
8 1 0.375 0.375 0.125
12 1 0.75 0.25 0
14 1 0.875 0.375 0.125
3 1 0.25 0 0.25
7 1 0.375 0.125 0.375
11 1 0.75 0 0.25
15 1 0.875 0.125 0.375
2 1 0 0.25 0.25
6 1 0.125 0.375 0.375
10 1 0.489123 0.241327 0.249224
16 1 0 0 0.5
20 1 0.125 0.125 0.625
24 1 0.5 0 0.5
28 1 0.625 0.125 0.625
23 1 0.384863 0.391527 0.617605
19 1 0.875 0.375 0.625
27 1 0.773689 0.244467 0.509706
18 1 0.25 0 0.75
22 1 0.375 0.125 0.875
26 1 0.75 0 0.75
30 1 0.875 0.125 0.875
17 1 0 0.25 0.75
21 1 0.125 0.375 0.875
25 1 0.488928 0.258182 0.74591
29 1 0.625 0.375 0.875
31 1 0 0.5 0
35 1 0.125 0.625 0.125
39 1 0.5 0.5 0
43 1 0.625 0.625 0.125
34 1 0.25 0.75 0
38 1 0.375 0.875 0.125
42 1 0.75 0.75 0
46 1 0.875 0.875 0.125
33 1 0.243551 0.512825 0.255176
37 1 0.374553 0.643266 0.366592
41 1 0.7731 0.512444 0.237654