ITEM: TIMESTEP
0
ITEM: NUMBER OF ATOMS
61
ITEM: BOX BOUNDS pp pp pp
0.0000000000000000e+00 1.0859999999999999e+01
0.0000000000000000e+00 1.0859999999999999e+01
0.0000000000000000e+00 1.0859999999999999e+01
ITEM: ATOMS id type xs ys zs
1 1 0 0 0
5 1 0.125 0.125 0.125
9 1 0.5 0 0
13 1 0.625 0.125 0.125
4 1 0.25 0.25 0
8 1 0.375 0.375 0.125
12 1 0.75 0.25 0
14 1 0.875 0.375 0.125
3 1 0.25 0 0.25
7 1 0.375 0.125 0.375
11 1 0.75 0 0.25
15 1 0.875 0.125 0.375
2 1 0 0.25 0.25
6 1 0.125 0.375 0.375
10 1 0.5 0.25 0.25
16 1 0 0 0.5
20 1 0.125 0.125 0.625
24 1 0.5 0 0.5
28 1 0.625 0.125 0.625
19 1 0.25 0.25 0.5
23 1 0.875 0.375 0.625
27 1 0.75 0.25 0.5
18 1 0.25 0 0.75
22 1 0.375 0.125 0.875
26 1 0.75 0 0.75
30 1 0.875 0.125 0.875
17 1 0 0.25 0.75
21 1 0.125 0.375 0.875
25 1 0.5 0.25 0.75
29 1 0.625 0.375 0.875
31 1 0 0.5 0
35 1 0.125 0.625 0.125
39 1 0.5 0.5 0
43 1 0.625 0.625 0.125
34 1 0.25 0.75 0
38 1 0.375 0.875 0.125
42 1 0.75 0.75 0
46 1 0.875 0.875 0.125
33 1 0.25 0.5 0.25
37 1 0.375 0.625 0.375
41 1 0.75 0.5 0.25
45 1 0.875 0.625 0.375
32 1 0 0.75 0.25
36 1 0.125 0.875 0.375
40 1 0.5 0.75 0.25
44 1 0.625 0.875 0.375
47 1 0 0.5 0.5
51 1 0.125 0.625 0.625
55 1 0.5 0.5 0.5
50 1 0.25 0.75 0.5
54 1 0.375 0.875 0.625
58 1 0.75 0.75 0.5
59 1 0.875 0.875 0.625
49 1 0.25 0.5 0.75
53 1 0.375 0.625 0.875
57 1 0.75 0.5 0.75
61 1 0.875 0.625 0.875
48 1 0 0.75 0.75
52 1 0.125 0.875 0.875
56 1 0.5 0.75 0.75
60 1 0.625 0.875 0.875
ITEM: TIMESTEP
100
ITEM: NUMBER OF ATOMS
61
ITEM: BOX BOUNDS pp pp pp
0.0000000000000000e+00 1.0859999999999999e+01
0.0000000000000000e+00 1.0859999999999999e+01
0.0000000000000000e+00 1.0859999999999999e+01
ITEM: ATOMS id type xs ys zs
1 1 0 0 0
5 1 0.125 0.125 0.125
9 1 0.5 0 0
13 1 0.625 0.125 0.125
4 1 0.25 0.25 0
8 1 0.375 0.375 0.125
12 1 0.75 0.25 0
14 1 0.875 0.375 0.125
3 1 0.25 0 0.25
7 1 0.375 0.125 0.375
11 1 0.75 0 0.25
15 1 0.875 0.125 0.375
2 1 0 0.25 0.25
6 1 0.125 0.375 0.375
10 1 0.490509 0.245571 0.255761
16 1 0 0 0.5
20 1 0.125 0.125 0.625
24 1 0.5 0 0.5
28 1 0.625 0.125 0.625
19 1 0.245376 0.245418 0.480778
23 1 0.875 0.375 0.625
27 1 0.7652 0.251344 0.50531
18 1 0.25 0 0.75
22 1 0.375 0.125 0.875
26 1 0.75 0 0.75
30 1 0.875 0.125 0.875
17 1 0 0.25 0.75
21 1 0.125 0.375 0.875
25 1 0.494351 0.249384 0.757732
29 1 0.625 0.375 0.875
31 1 0 0.5 0
35 1 0.125 0.625 0.125
39 1 0.5 0.5 0
43 1 0.625 0.625 0.125
34 1 0.25 0.75 0
38 1 0.375 0.875 0.125
42 1 0.75 0.75 0
46 1 0.875 0.875 0.125
33 1 0.237835 0.507666 0.249282
37 1 0.37875 0.627435 0.386106
41 1 0.763163 0.501898 0.246749
45 1 0.875 0.625 0.375
32 1 0 0.75 0.25
36 1 0.125 0.875 0.375
40 1 0.506591 0.744792 0.239586
44 1 0.625 0.875 0.375
47 1 0 0.5 0.5
51 1 0.125 0.625 0.625
55 1 0.500275 0.490054 0.507762
50 1 0.25625 0.752745 0.509819
54 1 0.375 0.875 0.625
58 1 0.738291 0.753008 0.496708
59 1 0.875 0.875 0.625
49 1 0.241635 0.493369 0.749411
53 1 0.375 0.625 0.875
57 1 0.748126 0.511093 0.739197
61 1 0.875 0.625 0.875
48 1 0 0.75 0.75
52 1 0.125 0.875 0.875
56 1 0.508858 0.749978 0.751666
60 1 0.625 0.875 0.875
ITEM: TIMESTEP
200
ITEM: NUMBER OF ATOMS
61
ITEM: BOX BOUNDS pp pp pp
0.0000000000000000e+00 1.0859999999999999e+01
0.0000000000000000e+00 1.0859999999999999e+01
0.0000000000000000e+00 1.0859999999999999e+01
ITEM: ATOMS id type xs ys zs
1 1 0 0 0
5 1 0.125 0.125 0.125
9 1 0.5 0 0
13 1 0.625 0.125 0.125
4 1 0.25 0.25 0
8 1 0.375 0.375 0.125
12 1 0.75 0.25 0
14 1 0.875 0.375 0.125
3 1 0.25 0 0.25
7 1 0.375 0.125 0.375
11 1 0.75 0 0.25
15 1 0.875 0.125 0.375
2 1 0 0.25 0.25
6 1 0.125 0.375 0.375
10 1 0.485387 0.243235 0.256695
16 1 0 0 0.5
20 1 0.125 0.125 0.625
24 1 0.5 0 0.5
28 1 0.625 0.125 0.625
19 1 0.239733 0.239643 0.468895
23 1 0.875 0.375 0.625
27 1 0.774009 0.248785 0.509359
18 1 0.25 0 0.75
22 1 0.375 0.125 0.875
26 1 0.75 0 0.75
30 1 0.875 0.125 0.875
17 1 0 0.25 0.75
21 1 0.125 0.375 0.875
25 1 0.492498 0.249019 0.762048
29 1 0.625 0.375 0.875
31 1 0 0.5 0
35 1 0.125 0.625 0.125
39 1 0.5 0.5 0
43 1 0.625 0.625 0.125
34 1 0.25 0.75 0
38 1 0.375 0.875 0.125
42 1 0.75 0.75 0
46 1 0.875 0.875 0.125
33 1 0.233944 0.511679 0.251778
37 1 0.38302 0.627846 0.393852
41 1 0.771381 0.505301 0.242981
45 1 0.875 0.625 0.375
32 1 0 0.75 0.25
36 1 0.125 0.875 0.375
40 1 0.508246 0.743637 0.236551
44 1 0.625 0.875 0.375
47 1 0 0.5 0.5
51 1 0.125 0.625 0.625
55 1 0.499651 0.481314 0.514568
50 1 0.258321 0.753816 0.514795
54 1 0.375 0.875 0.625
58 1 0.732442 0.753709 0.495729
59 1 0.875 0.875 0.625
49 1 0.237017 0.490694 0.748883
53 1 0.375 0.625 0.875
57 1 0.746192 0.518774 0.73133
61 1 0.875 0.625 0.875
48 1 0 0.75 0.75
52 1 0.125 0.875 0.875
56 1 0.513459 0.749521 0.75218
60 1 0.625 0.875 0.875
ITEM: TIMESTEP
300
ITEM: NUMBER OF ATOMS
61
ITEM: BOX BOUNDS pp pp pp
0.0000000000000000e+00 1.0859999999999999e+01
0.0000000000000000e+00 1.0859999999999999e+01
0.0000000000000000e+00 1.0859999999999999e+01
ITEM: ATOMS id type xs ys zs
1 1 0 0 0
5 1 0.125 0.125 0.125
9 1 0.5 0 0
13 1 0.625 0.125 0.125
4 1 0.25 0.25 0
8 1 0.375 0.375 0.125
12 1 0.75 0.25 0
14 1 0.875 0.375 0.125
3 1 0.25 0 0.25
7 1 0.375 0.125 0.375
11 1 0.75 0 0.25
15 1 0.875 0.125 0.375
2 1 0 0.25 0.25
6 1 0.125 0.375 0.375
10 1 0.487236 0.244431 0.25107
16 1 0 0 0.5
20 1 0.125 0.125 0.625
24 1 0.5 0 0.5
28 1 0.625 0.125 0.625
19 1 0.232556 0.23221 0.467921
23 1 0.875 0.375 0.625
27 1 0.773028 0.241017 0.511282
18 1 0.25 0 0.75
22 1 0.375 0.125 0.875
26 1 0.75 0 0.75
30 1 0.875 0.125 0.875
17 1 0 0.25 0.75
21 1 0.125 0.375 0.875
25 1 0.495756 0.24951 0.760859
29 1 0.625 0.375 0.875
31 1 0 0.5 0
35 1 0.125 0.625 0.125
39 1 0.5 0.5 0
43 1 0.625 0.625 0.125
34 1 0.25 0.75 0
38 1 0.375 0.875 0.125
42 1 0.75 0.75 0
46 1 0.875 0.875 0.125
33 1 0.241042 0.510778 0.258151
37 1 0.387471 0.625821 0.397305
41 1 0.771762 0.510546 0.238845
45 1 0.875 0.625 0.375
32 1 0 0.75 0.25
36 1 0.125 0.875 0.375
40 1 0.503673 0.747506 0.243149
44 1 0.625 0.875 0.375
47 1 0 0.5 0.5
51 1 0.125 0.625 0.625
55 1 0.497941 0.47439 0.520101
50 1 0.254779 0.751962 0.512421
54 1 0.375 0.875 0.625
58 1 0.734745 0.750717 0.498461
59 1 0.875 0.875 0.625
49 1 0.2384 0.493316 0.747962
53 1 0.375 0.625 0.875
57 1 0.74453 0.5219 0.727455
61 1 0.875 0.625 0.875
48 1 0 0.75 0.75
52 1 0.125 0.875 0.875
56 1 0.512165 0.748149 0.750805
60 1 0.625 0.875 0.875
ITEM: TIMESTEP
400
ITEM: NUMBER OF ATOMS
61
ITEM: BOX BOUNDS pp pp pp
0.0000000000000000e+00 1.0859999999999999e+01
0.0000000000000000e+00 1.0859999999999999e+01
0.0000000000000000e+00 1.0859999999999999e+01
ITEM: ATOMS id type xs ys zs
1 1 0 0 0
5 1 0.125 0.125 0.125
9 1 0.5 0 0
13 1 0.625 0.125 0.125
4 1 0.25 0.25 0
8 1 0.375 0.375 0.125
12 1 0.75 0.25 0
14 1 0.875 0.375 0.125
3 1 0.25 0 0.25
7 1 0.375 0.125 0.375
11 1 0.75 0 0.25
15 1 0.875 0.125 0.375
2 1 0 0.25 0.25
6 1 0.125 0.375 0.375
10 1 0.494341 0.247347 0.241939
16 1 0 0 0.5
20 1 0.125 0.125 0.625
24 1 0.5 0 0.5
28 1 0.625 0.125 0.625
19 1 0.224457 0.224052 0.475907
23 1 0.875 0.375 0.625
27 1 0.764147 0.231555 0.512668
18 1 0.25 0 0.75
22 1 0.375 0.125 0.875
26 1 0.75 0 0.75
30 1 0.875 0.125 0.875
17 1 0 0.25 0.75
21 1 0.125 0.375 0.875
25 1 0.502626 0.249971 0.754931
29 1 0.625 0.375 0.875
31 1 0 0.5 0
35 1 0.125 0.625 0.125
39 1 0.5 0.5 0
43 1 0.625 0.625 0.125
34 1 0.25 0.75 0
38 1 0.375 0.875 0.125
42 1 0.75 0.75 0
46 1 0.875 0.875 0.125
33 1 0.255587 0.506818 0.264951
37 1 0.390984 0.62194 0.397234
41 1 0.765363 0.516309 0.234692
45 1 0.875 0.625 0.375
32 1 0 0.75 0.25
36 1 0.125 0.875 0.375
40 1 0.496853 0.75259 0.255437
44 1 0.625 0.875 0.375
47 1 0 0.5 0.5
51 1 0.125 0.625 0.625
55 1 0.495217 0.469608 0.524297
50 1 0.248141 0.748536 0.504329
54 1 0.375 0.875 0.625
58 1 0.743593 0.745829 0.503147
59 1 0.875 0.875 0.625
49 1 0.245068 0.499908 0.747744
53 1 0.375 0.625 0.875
57 1 0.743555 0.520089 0.728247
61 1 0.875 0.625 0.875
48 1 0 0.75 0.75
52 1 0.125 0.875 0.875
56 1 0.50569 0.746638 0.748286
60 1 0.625 0.875 0.875
ITEM: TIMESTEP
500
ITEM: NUMBER OF ATOMS
61
ITEM: BOX BOUNDS pp pp pp
0.0000000000000000e+00 1.0859999999999999e+01
0.0000000000000000e+00 1.0859999999999999e+01
0.0000000000000000e+00 1.0859999999999999e+01
ITEM: ATOMS id type xs ys zs
1 1 0 0 0
5 1 0.125 0.125 0.125
9 1 0.5 0 0
13 1 0.625 0.125 0.125
4 1 0.25 0.25 0
8 1 0.375 0.375 0.125
12 1 0.75 0.25 0
14 1 0.875 0.375 0.125
3 1 0.25 0 0.25
7 1 0.375 0.125 0.375
11 1 0.75 0 0.25
15 1 0.875 0.125 0.375
2 1 0 0.25 0.25
6 1 0.125 0.375 0.375
10 1 0.502508 0.249768 0.234907
16 1 0 0 0.5
20 1 0.125 0.125 0.625
24 1 0.5 0 0.5
28 1 0.625 0.125 0.625
19 1 0.218884 0.218847 0.485153
23 1 0.875 0.375 0.625
27 1 0.753716 0.226495 0.513482
18 1 0.25 0 0.75
22 1 0.375 0.125 0.875
26 1 0.75 0 0.75
30 1 0.875 0.125 0.875
17 1 0 0.25 0.75
21 1 0.125 0.375 0.875
25 1 0.509556 0.249457 0.747383
29 1 0.625 0.375 0.875
31 1 0 0.5 0
35 1 0.125 0.625 0.125
39 1 0.5 0.5 0
43 1 0.625 0.625 0.125
34 1 0.25 0.75 0
38 1 0.375 0.875 0.125
42 1 0.75 0.75 0
46 1 0.875 0.875 0.125
33 1 0.270938 0.501021 0.268375
37 1 0.392824 0.61709 0.395829
41 1 0.757106 0.519399 0.23237
45 1 0.875 0.625 0.375
32 1 0 0.75 0.25
36 1 0.125 0.875 0.375
40 1 0.49193 0.755239 0.267145
44 1 0.625 0.875 0.375
47 1 0 0.5 0.5
51 1 0.125 0.625 0.625
55 1 0.491552 0.467023 0.527274
50 1 0.242733 0.745477 0.494964
54 1 0.375 0.875 0.625
58 1 0.754948 0.742046 0.506944
59 1 0.875 0.875 0.625
49 1 0.253759 0.507268 0.749363
53 1 0.375 0.625 0.875
57 1 0.743752 0.513723 0.733843
61 1 0.875 0.625 0.875
48 1 0 0.75 0.75
52 1 0.125 0.875 0.875
56 1 0.496703 0.746336 0.746227
60 1 0.625 0.875 0.875
ITEM: TIMESTEP
600
ITEM: NUMBER OF ATOMS
61
ITEM: BOX BOUNDS pp pp pp
0.0000000000000000e+00 1.0859999999999999e+01
0.0000000000000000e+00 1.0859999999999999e+01
0.0000000000000000e+00 1.0859999999999999e+01
ITEM: ATOMS id type xs ys zs
1 1 0 0 0
5 1 0.125 0.125 0.125
9 1 0.5 0 0
13 1 0.625 0.125 0.125
4 1 0.25 0.25 0
8 1 0.375 0.375 0.125
12 1 0.75 0.25 0
14 1 0.875 0.375 0.125
3 1 0.25 0 0.25
7 1 0.375 0.125 0.375
11 1 0.75 0 0.25
15 1 0.875 0.125 0.375
2 1 0 0.25 0.25
6 1 0.125 0.375 0.375
10 1 0.507924 0.25162 0.234062
16 1 0 0 0.5
20 1 0.125 0.125 0.625
24 1 0.5 0 0.5
28 1 0.625 0.125 0.625
19 1 0.220579 0.221248 0.486544
23 1 0.875 0.375 0.625
27 1 0.748664 0.230255 0.51063
18 1 0.25 0 0.75
22 1 0.375 0.125 0.875
26 1 0.75 0 0.75
30 1 0.875 0.125 0.875
17 1 0 0.25 0.75
21 1 0.125 0.375 0.875
25 1 0.512714 0.248779 0.742191
29 1 0.625 0.375 0.875
31 1 0 0.5 0
35 1 0.125 0.625 0.125
39 1 0.5 0.5 0
43 1 0.625 0.625 0.125
34 1 0.25 0.75 0
38 1 0.375 0.875 0.125
42 1 0.75 0.75 0
46 1 0.875 0.875 0.125
33 1 0.280003 0.493841 0.266759
37 1 0.393642 0.612159 0.396078
41 1 0.752691 0.516512 0.234834
45 1 0.875 0.625 0.375
32 1 0 0.75 0.25
36 1 0.125 0.875 0.375
40 1 0.489993 0.75499 0.273185
44 1 0.625 0.875 0.375
47 1 0 0.5 0.5
51 1 0.125 0.625 0.625
55 1 0.487099 0.466375 0.529333
50 1 0.241826 0.743081 0.488461
54 1 0.375 0.875 0.625
58 1 0.764026 0.741112 0.50833
59 1 0.875 0.875 0.625
49 1 0.259933 0.511605 0.751652
53 1 0.375 0.625 0.875
57 1 0.74534 0.503756 0.74383
61 1 0.875 0.625 0.875
48 1 0 0.75 0.75
52 1 0.125 0.875 0.875
56 1 0.489024 0.747899 0.746082
60 1 0.625 0.875 0.875
ITEM: TIMESTEP
700
ITEM: NUMBER OF ATOMS
61
ITEM: BOX BOUNDS pp pp pp
0.0000000000000000e+00 1.0859999999999999e+01
0.0000000000000000e+00 1.0859999999999999e+01
0.0000000000000000e+00 1.0859999999999999e+01
ITEM: ATOMS id type xs ys zs
1 1 0 0 0
5 1 0.125 0.125 0.125
9 1 0.5 0 0
13 1 0.625 0.125 0.125
4 1 0.25 0.25 0
8 1 0.375 0.375 0.125
12 1 0.75 0.25 0
14 1 0.875 0.375 0.125
3 1 0.25 0 0.25
7 1 0.375 0.125 0.375
11 1 0.75 0 0.25
15 1 0.875 0.125 0.375
2 1 0 0.25 0.25
6 1 0.125 0.375 0.375
10 1 0.508652 0.253493 0.240277
16 1 0 0 0.5
20 1 0.125 0.125 0.625
24 1 0.5 0 0.5
28 1 0.625 0.125 0.625
19 1 0.229553 0.230937 0.480543
23 1 0.875 0.375 0.625
27 1 0.750092 0.242472 0.503555
18 1 0.25 0 0.75
22 1 0.375 0.125 0.875
26 1 0.75 0 0.75
30 1 0.875 0.125 0.875
17 1 0 0.25 0.75
21 1 0.125 0.375 0.875
25 1 0.509955 0.249289 0.742137
29 1 0.625 0.375 0.875
31 1 0 0.5 0
35 1 0.125 0.625 0.125
39 1 0.5 0.5 0
43 1 0.625 0.625 0.125
34 1 0.25 0.75 0
38 1 0.375 0.875 0.125
42 1 0.75 0.75 0
46 1 0.875 0.875 0.125
33 1 0.276757 0.489432 0.26091
37 1 0.393688 0.607755 0.398267
41 1 0.753101 0.507545 0.242585
45 1 0.875 0.625 0.375
32 1 0 0.75 0.25
36 1 0.125 0.875 0.375
40 1 0.490784 0.752209 0.27113
44 1 0.625 0.875 0.375
47 1 0 0.5 0.5
51 1 0.125 0.625 0.625
55 1 0.482295 0.466941 0.531209
50 1 0.246003 0.741102 0.486991
54 1 0.375 0.875 0.625
58 1 0.766889 0.74333 0.506932
59 1 0.875 0.875 0.625
49 1 0.260015 0.510205 0.75224
53 1 0.375 0.625 0.875
57 1 0.748766 0.492424 0.756316
61 1 0.875 0.625 0.875
48 1 0 0.75 0.75
52 1 0.125 0.875 0.875
56 1 0.486061 0.751056 0.748683
60 1 0.625 0.875 0.875
ITEM: TIMESTEP
800
ITEM: NUMBER OF ATOMS
61
ITEM: BOX BOUNDS pp pp pp
0.0000000000000000e+00 1.0859999999999999e+01
0.0000000000000000e+00 1.0859999999999999e+01
0.0000000000000000e+00 1.0859999999999999e+01
ITEM: ATOMS id type xs ys zs
1 1 0 0 0
5 1 0.125 0.125 0.125
9 1 0.5 0 0
13 1 0.625 0.125 0.125
4 1 0.25 0.25 0
8 1 0.375 0.375 0.125
12 1 0.75 0.25 0
14 1 0.875 0.375 0.125
3 1 0.25 0 0.25
7 1 0.375 0.125 0.375
11 1 0.75 0 0.25
15 1 0.875 0.125 0.375
2 1 0 0.25 0.25
6 1 0.125 0.375 0.375
10 1 0.505136 0.254594 0.251133
16 1 0 0 0.5
20 1 0.125 0.125 0.625
24 1 0.5 0 0.5
28 1 0.625 0.125 0.625
19 1 0.241612 0.242875 0.476326
23 1 0.875 0.375 0.625
27 1 0.753767 0.257836 0.495419
18 1 0.25 0 0.75
22 1 0.375 0.125 0.875
26 1 0.75 0 0.75
30 1 0.875 0.125 0.875
17 1 0 0.25 0.75
21 1 0.125 0.375 0.875
25 1 0.502284 0.250651 0.747087
29 1 0.625 0.375 0.875
31 1 0 0.5 0
35 1 0.125 0.625 0.125
39 1 0.5 0.5 0
43 1 0.625 0.625 0.125
34 1 0.25 0.75 0
38 1 0.375 0.875 0.125
42 1 0.75 0.75 0
46 1 0.875 0.875 0.125
33 1 0.26219 0.49141 0.25502
37 1 0.391973 0.603984 0.398464
41 1 0.754569 0.496308 0.252575
45 1 0.875 0.625 0.375
32 1 0 0.75 0.25
36 1 0.125 0.875 0.375
40 1 0.494025 0.747158 0.262344
44 1 0.625 0.875 0.375
47 1 0 0.5 0.5
51 1 0.125 0.625 0.625
55 1 0.477881 0.467574 0.534042
50 1 0.253329 0.740468 0.491054
54 1 0.375 0.875 0.625
58 1 0.762058 0.748335 0.502585
59 1 0.875 0.875 0.625
49 1 0.253768 0.503461 0.750878
53 1 0.375 0.625 0.875
57 1 0.755548 0.483497 0.767292
61 1 0.875 0.625 0.875
48 1 0 0.75 0.75
52 1 0.125 0.875 0.875
56 1 0.489047 0.755204 0.75397
60 1 0.625 0.875 0.875
ITEM: TIMESTEP
900
ITEM: NUMBER OF ATOMS
61
ITEM: BOX BOUNDS pp pp pp
0.0000000000000000e+00 1.0859999999999999e+01
0.0000000000000000e+00 1.0859999999999999e+01
0.0000000000000000e+00 1.0859999999999999e+01
ITEM: ATOMS id type xs ys zs
1 1 0 0 0
5 1 0.125 0.125 0.125
9 1 0.5 0 0
13 1 0.625 0.125 0.125
4 1 0.25 0.25 0
8 1 0.375 0.375 0.125
12 1 0.75 0.25 0
14 1 0.875 0.375 0.125
3 1 0.25 0 0.25
7 1 0.375 0.125 0.375
11 1 0.75 0 0.25
15 1 0.875 0.125 0.375
2 1 0 0.25 0.25
6 1 0.125 0.375 0.375
10 1 0.499512 0.25395 0.262048
16 1 0 0 0.5
20 1 0.125 0.125 0.625
24 1 0.5 0 0.5
28 1 0.625 0.125 0.625
19 1 0.253509 0.253504 0.480793
23 1 0.875 0.375 0.625
27 1 0.75571 0.270576 0.488415
18 1 0.25 0 0.75
22 1 0.375 0.125 0.875
26 1 0.75 0 0.75
30 1 0.875 0.125 0.875
17 1 0 0.25 0.75
21 1 0.125 0.375 0.875
25 1 0.493533 0.251595 0.754015
29 1 0.625 0.375 0.875
31 1 0 0.5 0
35 1 0.125 0.625 0.125
39 1 0.5 0.5 0
43 1 0.625 0.625 0.125
34 1 0.25 0.75 0
38 1 0.375 0.875 0.125
42 1 0.75 0.75 0
46 1 0.875 0.875 0.125
33 1 0.243241 0.498485 0.250136
37 1 0.38763 0.601542 0.393494
41 1 0.754094 0.486746 0.261584
45 1 0.875 0.625 0.375
32 1 0 0.75 0.25
36 1 0.125 0.875 0.375
40 1 0.499312 0.740732 0.250519
44 1 0.625 0.875 0.375
47 1 0 0.5 0.5
51 1 0.125 0.625 0.625
55 1 0.474222 0.467588 0.538104
50 1 0.260733 0.742352 0.499445
54 1 0.375 0.875 0.625
58 1 0.751713 0.755103 0.495878
59 1 0.875 0.875 0.625
49 1 0.244598 0.49504 0.749238
53 1 0.375 0.625 0.875
57 1 0.766596 0.479133 0.773344
61 1 0.875 0.625 0.875
48 1 0 0.75 0.75
52 1 0.125 0.875 0.875
56 1 0.495852 0.759348 0.760161
60 1 0.625 0.875 0.875
ITEM: TIMESTEP
1000
ITEM: NUMBER OF ATOMS
61
ITEM: BOX BOUNDS pp pp pp
0.0000000000000000e+00 1.0859999999999999e+01
0.0000000000000000e+00 1.0859999999999999e+01
0.0000000000000000e+00 1.0859999999999999e+01
ITEM: ATOMS id type xs ys zs
1 1 0 0 0
5 1 0.125 0.125 0.125
9 1 0.5 0 0
13 1 0.625 0.125 0.125
4 1 0.25 0.25 0
8 1 0.375 0.375 0.125
12 1 0.75 0.25 0
14 1 0.875 0.375 0.125
3 1 0.25 0 0.25
7 1 0.375 0.125 0.375
11 1 0.75 0 0.25
15 1 0.875 0.125 0.375
2 1 0 0.25 0.25
6 1 0.125 0.375 0.375
10 1 0.494674 0.252685 0.268476
16 1 0 0 0.5
20 1 0.125 0.125 0.625
24 1 0.5 0 0.5
28 1 0.625 0.125 0.625
19 1 0.263337 0.262019 0.493978
23 1 0.875 0.375 0.625
27 1 0.754114 0.277287 0.483065
18 1 0.25 0 0.75
22 1 0.375 0.125 0.875
26 1 0.75 0 0.75
30 1 0.875 0.125 0.875
17 1 0 0.25 0.75
21 1 0.125 0.375 0.875
25 1 0.488032 0.252102 0.758901
29 1 0.625 0.375 0.875
31 1 0 0.5 0
35 1 0.125 0.625 0.125
39 1 0.5 0.5 0
43 1 0.625 0.625 0.125
34 1 0.25 0.75 0
38 1 0.375 0.875 0.125
42 1 0.75 0.75 0
46 1 0.875 0.875 0.125
33 1 0.228478 0.505783 0.24626
37 1 0.381112 0.601363 0.384155
41 1 0.751493 0.480848 0.267793
45 1 0.875 0.625 0.375
32 1 0 0.75 0.25
36 1 0.125 0.875 0.375
40 1 0.503973 0.735936 0.241191
44 1 0.625 0.875 0.375
47 1 0 0.5 0.5
51 1 0.125 0.625 0.625
55 1 0.470665 0.467591 0.541807
50 1 0.265007 0.745564 0.50829
54 1 0.375 0.875 0.625
58 1 0.741915 0.76073 0.489818
59 1 0.875 0.875 0.625
49 1 0.237412 0.489355 0.747827
53 1 0.375 0.625 0.875
57 1 0.778642 0.477584 0.7746
61 1 0.875 0.625 0.875
48 1 0 0.75 0.75
52 1 0.125 0.875 0.875
56 1 0.501547 0.761354 0.763697
60 1 0.625 0.875 0.875
ITEM: TIMESTEP
1100
ITEM: NUMBER OF ATOMS
61
ITEM: BOX BOUNDS pp pp pp
0.0000000000000000e+00 1.0859999999999999e+01
0.0000000000000000e+00 1.0859999999999999e+01
0.0000000000000000e+00 1.0859999999999999e+01
ITEM: ATOMS id type xs ys zs
1 1 0 0 0
5 1 0.125 0.125 0.125
9 1 0.5 0 0
13 1 0.625 0.125 0.125
4 1 0.25 0.25 0
8 1 0.375 0.375 0.125
12 1 0.75 0.25 0
14 1 0.875 0.375 0.125
3 1 0.25 0 0.25
7 1 0.375 0.125 0.375
11 1 0.75 0 0.25
15 1 0.875 0.125 0.375
2 1 0 0.25 0.25
6 1 0.125 0.375 0.375
10 1 0.49323 0.252889 0.267468
16 1 0 0 0.5
20 1 0.125 0.125 0.625
24 1 0.5 0 0.5
28 1 0.625 0.125 0.625
19 1 0.269767 0.267893 0.510546
23 1 0.875 0.375 0.625
27 1 0.748591 0.276057 0.480877
18 1 0.25 0 0.75
22 1 0.375 0.125 0.875
26 1 0.75 0 0.75
30 1 0.875 0.125 0.875
17 1 0 0.25 0.75
21 1 0.125 0.375 0.875
25 1 0.488371 0.252968 0.759034
29 1 0.625 0.375 0.875
31 1 0 0.5 0
35 1 0.125 0.625 0.125
39 1 0.5 0.5 0
43 1 0.625 0.625 0.125
34 1 0.25 0.75 0
38 1 0.375 0.875 0.125
42 1 0.75 0.75 0
46 1 0.875 0.875 0.125
33 1 0.225029 0.506851 0.246272
37 1 0.374105 0.603778 0.373265
41 1 0.747743 0.479563 0.269961
45 1 0.875 0.625 0.375
32 1 0 0.75 0.25
36 1 0.125 0.875 0.375
40 1 0.503587 0.736624 0.239945
44 1 0.625 0.875 0.375
47 1 0 0.5 0.5
51 1 0.125 0.625 0.625
55 1 0.466001 0.4689 0.543221
50 1 0.263699 0.746766 0.512076
54 1 0.375 0.875 0.625
58 1 0.739331 0.760931 0.489065
59 1 0.875 0.875 0.625
49 1 0.235905 0.489089 0.745959
53 1 0.375 0.625 0.875
57 1 0.785998 0.476014 0.773714
61 1 0.875 0.625 0.875
48 1 0 0.75 0.75
52 1 0.125 0.875 0.875
56 1 0.502141 0.759193 0.761723
60 1 0.625 0.875 0.875
ITEM: TIMESTEP
1200
ITEM: NUMBER OF ATOMS
61
ITEM: BOX BOUNDS pp pp pp
0.0000000000000000e+00 1.0859999999999999e+01
0.0000000000000000e+00 1.0859999999999999e+01
0.0000000000000000e+00 1.0859999999999999e+01
ITEM: ATOMS id type xs ys zs
1 1 0 0 0
5 1 0.125 0.125 0.125
9 1 0.5 0 0
13 1 0.625 0.125 0.125
4 1 0.25 0.25 0
8 1 0.375 0.375 0.125
12 1 0.75 0.25 0
14 1 0.875 0.375 0.125
3 1 0.25 0 0.25
7 1 0.375 0.125 0.375
11 1 0.75 0 0.25
15 1 0.875 0.125 0.375
2 1 0 0.25 0.25
6 1 0.125 0.375 0.375
10 1 0.495706 0.254493 0.259049
16 1 0 0 0.5
20 1 0.125 0.125 0.625
24 1 0.5 0 0.5
28 1 0.625 0.125 0.625
19 1 0.274156 0.272493 0.525599
23 1 0.875 0.375 0.625
27 1 0.741492 0.268119 0.482853
18 1 0.25 0 0.75
22 1 0.375 0.125 0.875
26 1 0.75 0 0.75
30 1 0.875 0.125 0.875
17 1 0 0.25 0.75
21 1 0.125 0.375 0.875
25 1 0.49444 0.253774 0.754277
29 1 0.625 0.375 0.875
31 1 0 0.5 0
35 1 0.125 0.625 0.125
39 1 0.5 0.5 0
43 1 0.625 0.625 0.125
34 1 0.25 0.75 0
38 1 0.375 0.875 0.125
42 1 0.75 0.75 0
46 1 0.875 0.875 0.125
33 1 0.233643 0.499848 0.249689
37 1 0.368453 0.60885 0.364551
41 1 0.744081 0.483066 0.267487
45 1 0.875 0.625 0.375
32 1 0 0.75 0.25
36 1 0.125 0.875 0.375
40 1 0.497988 0.743084 0.246995
44 1 0.625 0.875 0.375
47 1 0 0.5 0.5
51 1 0.125 0.625 0.625
55 1 0.457395 0.470376 0.540818
50 1 0.256784 0.744825 0.507945
54 1 0.375 0.875 0.625
58 1 0.745592 0.754802 0.494782
59 1 0.875 0.875 0.625
49 1 0.240857 0.49409 0.744327
53 1 0.375 0.625 0.875
57 1 0.7853 0.473885 0.773498
61 1 0.875 0.625 0.875
48 1 0 0.75 0.75
52 1 0.125 0.875 0.875
56 1 0.49807 0.7536 0.75487
60 1 0.625 0.875 0.875
ITEM: TIMESTEP
1300
ITEM: NUMBER OF ATOMS
61
ITEM: BOX BOUNDS pp pp pp
0.0000000000000000e+00 1.0859999999999999e+01
0.0000000000000000e+00 1.0859999999999999e+01
0.0000000000000000e+00 1.0859999999999999e+01
ITEM: ATOMS id type xs ys zs
1 1 0 0 0
5 1 0.125 0.125 0.125
9 1 0.5 0 0
13 1 0.625 0.125 0.125
4 1 0.25 0.25 0
8 1 0.375 0.375 0.125
12 1 0.75 0.25 0
14 1 0.875 0.375 0.125
3 1 0.25 0 0.25
7 1 0.375 0.125 0.375
11 1 0.75 0 0.25
15 1 0.875 0.125 0.375
2 1 0 0.25 0.25
6 1 0.125 0.375 0.375
10 1 0.500432 0.25502 0.246515
16 1 0 0 0.5
20 1 0.125 0.125 0.625
24 1 0.5 0 0.5
28 1 0.625 0.125 0.625
19 1 0.282711 0.282373 0.536572
23 1 0.875 0.375 0.625
27 1 0.735583 0.255746 0.489218
18 1 0.25 0 0.75
22 1 0.375 0.125 0.875
26 1 0.75 0 0.75
30 1 0.875 0.125 0.875
17 1 0 0.25 0.75
21 1 0.125 0.375 0.875
25 1 0.503608 0.253106 0.746964
29 1 0.625 0.375 0.875
31 1 0 0.5 0
35 1 0.125 0.625 0.125
39 1 0.5 0.5 0
43 1 0.625 0.625 0.125
34 1 0.25 0.75 0
38 1 0.375 0.875 0.125
42 1 0.75 0.75 0
46 1 0.875 0.875 0.125
33 1 0.248145 0.489471 0.25008
37 1 0.366055 0.615858 0.36349
41 1 0.74172 0.49077 0.260606
45 1 0.875 0.625 0.375
32 1 0 0.75 0.25
36 1 0.125 0.875 0.375
40 1 0.491842 0.751631 0.256397
44 1 0.625 0.875 0.375
47 1 0 0.5 0.5
51 1 0.125 0.625 0.625
55 1 0.438265 0.465869 0.533644
50 1 0.24727 0.742506 0.497747
54 1 0.375 0.875 0.625
58 1 0.755976 0.74645 0.503042
59 1 0.875 0.875 0.625
49 1 0.250085 0.501835 0.745044
53 1 0.375 0.625 0.875
57 1 0.777137 0.472683 0.774871
61 1 0.875 0.625 0.875
48 1 0 0.75 0.75
52 1 0.125 0.875 0.875
56 1 0.493199 0.747425 0.746616
60 1 0.625 0.875 0.875
ITEM: TIMESTEP
1400
ITEM: NUMBER OF ATOMS
61
ITEM: BOX BOUNDS pp pp pp
0.0000000000000000e+00 1.0859999999999999e+01
0.0000000000000000e+00 1.0859999999999999e+01
0.0000000000000000e+00 1.0859999999999999e+01
ITEM: ATOMS id type xs ys zs
1 1 0 0 0
5 1 0.125 0.125 0.125
9 1 0.5 0 0
13 1 0.625 0.125 0.125
4 1 0.25 0.25 0
8 1 0.375 0.375 0.125
33 1 0.260893 0.482081 0.246777
10 1 0.504941 0.252723 0.235155
12 1 0.75 0.25 0
14 1 0.875 0.375 0.125
3 1 0.25 0 0.25
7 1 0.375 0.125 0.375
27 1 0.73364 0.242117 0.498446
11 1 0.75 0 0.25
15 1 0.875 0.125 0.375
2 1 0 0.25 0.25
6 1 0.125 0.375 0.375
41 1 0.741711 0.501246 0.250527
16 1 0 0 0.5
20 1 0.125 0.125 0.625
24 1 0.5 0 0.5
28 1 0.625 0.125 0.625
19 1 0.290978 0.292428 0.53967
55 1 0.411751 0.458875 0.524195
25 1 0.511596 0.250955 0.740935
23 1 0.875 0.375 0.625
18 1 0.25 0 0.75
22 1 0.375 0.125 0.875
26 1 0.75 0 0.75
30 1 0.875 0.125 0.875
17 1 0 0.25 0.75
21 1 0.125 0.375 0.875
29 1 0.625 0.375 0.875
57 1 0.76626 0.474666 0.775435
31 1 0 0.5 0
35 1 0.125 0.625 0.125
39 1 0.5 0.5 0
43 1 0.625 0.625 0.125
34 1 0.25 0.75 0
38 1 0.375 0.875 0.125
42 1 0.75 0.75 0
46 1 0.875 0.875 0.125
50 1 0.239078 0.742636 0.486838
37 1 0.366352 0.622838 0.370783
45 1 0.875 0.625 0.375
32 1 0 0.75 0.25
36 1 0.125 0.875 0.375
40 1 0.488925 0.758724 0.262476
44 1 0.625 0.875 0.375
47 1 0 0.5 0.5
51 1 0.125 0.625 0.625
49 1 0.260092 0.508663 0.747538
56 1 0.491144 0.742718 0.740262
58 1 0.764222 0.739825 0.509952
54 1 0.375 0.875 0.625
59 1 0.875 0.875 0.625
53 1 0.375 0.625 0.875
61 1 0.875 0.625 0.875
52 1 0.125 0.875 0.875
48 1 0 0.75 0.75
60 1 0.625 0.875 0.875
ITEM: TIMESTEP
1500
ITEM: NUMBER OF ATOMS
61
ITEM: BOX BOUNDS pp pp pp
0.0000000000000000e+00 1.0859999999999999e+01
0.0000000000000000e+00 1.0859999999999999e+01
0.0000000000000000e+00 1.0859999999999999e+01
ITEM: ATOMS id type xs ys zs
1 1 0 0 0
5 1 0.125 0.125 0.125
9 1 0.5 0 0
13 1 0.625 0.125 0.125
4 1 0.25 0.25 0
8 1 0.375 0.375 0.125
33 1 0.265253 0.484031 0.247009
10 1 0.506372 0.248706 0.230057
12 1 0.75 0.25 0
14 1 0.875 0.375 0.125
3 1 0.25 0 0.25
7 1 0.375 0.125 0.375
27 1 0.739294 0.232925 0.506043
11 1 0.75 0 0.25
15 1 0.875 0.125 0.375
2 1 0 0.25 0.25
6 1 0.125 0.375 0.375
41 1 0.745702 0.511047 0.240584
16 1 0 0 0.5
20 1 0.125 0.125 0.625
24 1 0.5 0 0.5
28 1 0.625 0.125 0.625
19 1 0.285878 0.285563 0.532991
55 1 0.385953 0.461635 0.517399
25 1 0.514206 0.249269 0.7399
23 1 0.875 0.375 0.625
18 1 0.25 0 0.75
22 1 0.375 0.125 0.875
26 1 0.75 0 0.75
30 1 0.875 0.125 0.875
17 1 0 0.25 0.75
21 1 0.125 0.375 0.875
29 1 0.625 0.375 0.875
57 1 0.758529 0.482014 0.771291
31 1 0 0.5 0
35 1 0.125 0.625 0.125
39 1 0.5 0.5 0
43 1 0.625 0.625 0.125
34 1 0.25 0.75 0
38 1 0.375 0.875 0.125
42 1 0.75 0.75 0
46 1 0.875 0.875 0.125
50 1 0.234446 0.745131 0.482137
37 1 0.368366 0.626358 0.380621
45 1 0.875 0.625 0.375
32 1 0 0.75 0.25
36 1 0.125 0.875 0.375
40 1 0.48983 0.761595 0.263331
44 1 0.625 0.875 0.375
47 1 0 0.5 0.5
51 1 0.125 0.625 0.625
49 1 0.268127 0.509979 0.745193
56 1 0.493144 0.740154 0.737415
58 1 0.766169 0.736302 0.513896
54 1 0.375 0.875 0.625
59 1 0.875 0.875 0.625
53 1 0.375 0.625 0.875
61 1 0.875 0.625 0.875
52 1 0.125 0.875 0.875
48 1 0 0.75 0.75
60 1 0.625 0.875 0.875
ITEM: TIMESTEP
1600
ITEM: NUMBER OF ATOMS
61
ITEM: BOX BOUNDS pp pp pp
0.0000000000000000e+00 1.0859999999999999e+01
0.0000000000000000e+00 1.0859999999999999e+01
0.0000000000000000e+00 1.0859999999999999e+01
ITEM: ATOMS id type xs ys zs
1 1 0 0 0
5 1 0.125 0.125 0.125
9 1 0.5 0 0
13 1 0.625 0.125 0.125
4 1 0.25 0.25 0
8 1 0.375 0.375 0.125
33 1 0.260056 0.496066 0.253035
10 1 0.502465 0.24517 0.233673
12 1 0.75 0.25 0
14 1 0.875 0.375 0.125
3 1 0.25 0 0.25
7 1 0.375 0.125 0.375
27 1 0.753829 0.232261 0.509134
11 1 0.75 0 0.25
15 1 0.875 0.125 0.375
2 1 0 0.25 0.25
6 1 0.125 0.375 0.375
41 1 0.755205 0.516298 0.234665
16 1 0 0 0.5
20 1 0.125 0.125 0.625
24 1 0.5 0 0.5
28 1 0.625 0.125 0.625
19 1 0.268409 0.262426 0.519055
55 1 0.360573 0.474112 0.522608
25 1 0.509958 0.249233 0.745079
23 1 0.875 0.375 0.625
18 1 0.25 0 0.75
22 1 0.375 0.125 0.875
26 1 0.75 0 0.75
30 1 0.875 0.125 0.875
17 1 0 0.25 0.75
21 1 0.125 0.375 0.875
29 1 0.625 0.375 0.875
57 1 0.754862 0.494091 0.761056
31 1 0 0.5 0
35 1 0.125 0.625 0.125
39 1 0.5 0.5 0
43 1 0.625 0.625 0.125
34 1 0.25 0.75 0
38 1 0.375 0.875 0.125
42 1 0.75 0.75 0
46 1 0.875 0.875 0.125
50 1 0.234856 0.748425 0.488184
37 1 0.371907 0.627789 0.386388
45 1 0.875 0.625 0.375
32 1 0 0.75 0.25
36 1 0.125 0.875 0.375
40 1 0.493781 0.758242 0.259599
44 1 0.625 0.875 0.375
47 1 0 0.5 0.5
51 1 0.125 0.625 0.625
49 1 0.273845 0.503601 0.730475
56 1 0.498349 0.740097 0.738456
58 1 0.76044 0.736439 0.513909
54 1 0.375 0.875 0.625
59 1 0.875 0.875 0.625
53 1 0.375 0.625 0.875
61 1 0.875 0.625 0.875
52 1 0.125 0.875 0.875
48 1 0 0.75 0.75
60 1 0.625 0.875 0.875
ITEM: TIMESTEP
1700
ITEM: NUMBER OF ATOMS
61
ITEM: BOX BOUNDS pp pp pp
0.0000000000000000e+00 1.0859999999999999e+01
0.0000000000000000e+00 1.0859999999999999e+01
0.0000000000000000e+00 1.0859999999999999e+01
ITEM: ATOMS id type xs ys zs
1 1 0 0 0
5 1 0.125 0.125 0.125
9 1 0.5 0 0
13 1 0.625 0.125 0.125
4 1 0.25 0.25 0
8 1 0.375 0.375 0.125
33 1 0.250033 0.511352 0.259589
10 1 0.494255 0.242819 0.244134
12 1 0.75 0.25 0
14 1 0.875 0.375 0.125
3 1 0.25 0 0.25
7 1 0.375 0.125 0.375
27 1 0.77127 0.238135 0.51046
11 1 0.75 0 0.25
15 1 0.875 0.125 0.375
2 1 0 0.25 0.25
6 1 0.125 0.375 0.375
41 1 0.768114 0.516668 0.233226
16 1 0 0 0.5
20 1 0.125 0.125 0.625
24 1 0.5 0 0.5
28 1 0.625 0.125 0.625
19 1 0.248606 0.240256 0.499745
55 1 0.334795 0.479616 0.534203
25 1 0.501342 0.249685 0.753857
23 1 0.875 0.375 0.625
18 1 0.25 0 0.75
22 1 0.375 0.125 0.875
26 1 0.75 0 0.75
30 1 0.875 0.125 0.875
17 1 0 0.25 0.75
21 1 0.125 0.375 0.875
29 1 0.625 0.375 0.875
57 1 0.751842 0.50677 0.747235
31 1 0 0.5 0
35 1 0.125 0.625 0.125
39 1 0.5 0.5 0
43 1 0.625 0.625 0.125
34 1 0.25 0.75 0
38 1 0.375 0.875 0.125
42 1 0.75 0.75 0
46 1 0.875 0.875 0.125
50 1 0.240971 0.752295 0.502693
37 1 0.375841 0.631136 0.385908
45 1 0.875 0.625 0.375
32 1 0 0.75 0.25
36 1 0.125 0.875 0.375
40 1 0.500012 0.749797 0.252931
44 1 0.625 0.875 0.375
47 1 0 0.5 0.5
51 1 0.125 0.625 0.625
49 1 0.273699 0.494868 0.717169
56 1 0.504669 0.742836 0.742949
58 1 0.749611 0.740046 0.510003
54 1 0.375 0.875 0.625
59 1 0.875 0.875 0.625
53 1 0.375 0.625 0.875
61 1 0.875 0.625 0.875
52 1 0.125 0.875 0.875
48 1 0 0.75 0.75
60 1 0.625 0.875 0.875
ITEM: TIMESTEP
1800
ITEM: NUMBER OF ATOMS
61
ITEM: BOX BOUNDS pp pp pp
0.0000000000000000e+00 1.0859999999999999e+01
0.0000000000000000e+00 1.0859999999999999e+01
0.0000000000000000e+00 1.0859999999999999e+01
ITEM: ATOMS id type xs ys zs
1 1 0 0 0
5 1 0.125 0.125 0.125
9 1 0.5 0 0
13 1 0.625 0.125 0.125
4 1 0.25 0.25 0
8 1 0.375 0.375 0.125
6 1 0.125 0.375 0.375
10 1 0.486534 0.242382 0.255299
12 1 0.75 0.25 0
14 1 0.875 0.375 0.125
3 1 0.25 0 0.25
7 1 0.375 0.125 0.375
2 1 0 0.25 0.25
11 1 0.75 0 0.25
15 1 0.875 0.125 0.375
19 1 0.232405 0.233461 0.48
16 1 0 0 0.5
20 1 0.125 0.125 0.625
24 1 0.5 0 0.5
28 1 0.625 0.125 0.625
49 1 0.261911 0.487565 0.728795
55 1 0.313583 0.469208 0.528367
25 1 0.493124 0.249677 0.761483
23 1 0.875 0.375 0.625
18 1 0.25 0 0.75
22 1 0.375 0.125 0.875
26 1 0.75 0 0.75
30 1 0.875 0.125 0.875
17 1 0 0.25 0.75
21 1 0.125 0.375 0.875
29 1 0.625 0.375 0.875
27 1 0.782129 0.2445 0.512214
31 1 0 0.5 0
35 1 0.125 0.625 0.125
39 1 0.5 0.5 0
43 1 0.625 0.625 0.125
34 1 0.25 0.75 0
38 1 0.375 0.875 0.125
42 1 0.75 0.75 0
46 1 0.875 0.875 0.125