ITEM: TIMESTEP
0
ITEM: NUMBER OF ATOMS
61
ITEM: BOX BOUNDS pp pp pp
0.0000000000000000e+00 1.0859999999999999e+01
0.0000000000000000e+00 1.0859999999999999e+01
0.0000000000000000e+00 1.0859999999999999e+01
ITEM: ATOMS id type xs ys zs
1 1 0 0 0
5 1 0.125 0.125 0.125
9 1 0.5 0 0
13 1 0.625 0.125 0.125
4 1 0.25 0.25 0
8 1 0.375 0.375 0.125
12 1 0.75 0.25 0
14 1 0.875 0.375 0.125
3 1 0.25 0 0.25
7 1 0.375 0.125 0.375
11 1 0.75 0 0.25
15 1 0.875 0.125 0.375
2 1 0 0.25 0.25
6 1 0.125 0.375 0.375
10 1 0.5 0.25 0.25
16 1 0 0 0.5
20 1 0.125 0.125 0.625
24 1 0.5 0 0.5
28 1 0.625 0.125 0.625
23 1 0.375 0.375 0.625
19 1 0.875 0.375 0.625
27 1 0.75 0.25 0.5
18 1 0.25 0 0.75
22 1 0.375 0.125 0.875
26 1 0.75 0 0.75
30 1 0.875 0.125 0.875
17 1 0 0.25 0.75
21 1 0.125 0.375 0.875
25 1 0.5 0.25 0.75
29 1 0.625 0.375 0.875
31 1 0 0.5 0
35 1 0.125 0.625 0.125
39 1 0.5 0.5 0
43 1 0.625 0.625 0.125
34 1 0.25 0.75 0
38 1 0.375 0.875 0.125
42 1 0.75 0.75 0
46 1 0.875 0.875 0.125
33 1 0.25 0.5 0.25
37 1 0.375 0.625 0.375
41 1 0.75 0.5 0.25
45 1 0.875 0.625 0.375
32 1 0 0.75 0.25
36 1 0.125 0.875 0.375
40 1 0.5 0.75 0.25
44 1 0.625 0.875 0.375
47 1 0 0.5 0.5
51 1 0.125 0.625 0.625
55 1 0.5 0.5 0.5
50 1 0.25 0.75 0.5
54 1 0.375 0.875 0.625
58 1 0.75 0.75 0.5
59 1 0.875 0.875 0.625
49 1 0.25 0.5 0.75
53 1 0.375 0.625 0.875
57 1 0.75 0.5 0.75
61 1 0.875 0.625 0.875
48 1 0 0.75 0.75
52 1 0.125 0.875 0.875
56 1 0.5 0.75 0.75
60 1 0.625 0.875 0.875
ITEM: TIMESTEP
100
ITEM: NUMBER OF ATOMS
61
ITEM: BOX BOUNDS pp pp pp
0.0000000000000000e+00 1.0859999999999999e+01
0.0000000000000000e+00 1.0859999999999999e+01
0.0000000000000000e+00 1.0859999999999999e+01
ITEM: ATOMS id type xs ys zs
1 1 0 0 0
5 1 0.125 0.125 0.125
9 1 0.5 0 0
13 1 0.625 0.125 0.125
4 1 0.25 0.25 0
8 1 0.376667 0.37271 0.121923
12 1 0.75 0.25 0
14 1 0.875 0.375 0.125
3 1 0.25 0 0.25
7 1 0.374318 0.120549 0.383701
11 1 0.75 0 0.25
15 1 0.875 0.125 0.375
2 1 0 0.25 0.25
6 1 0.122728 0.371791 0.371078
10 1 0.493111 0.247908 0.253207
16 1 0 0 0.5
20 1 0.125 0.125 0.625
24 1 0.506053 -0.00689403 0.500881
28 1 0.628028 0.122401 0.609896
23 1 0.368674 0.376887 0.624089
19 1 0.871209 0.375628 0.613672
27 1 0.757292 0.2505 0.502089
18 1 0.25 0 0.75
22 1 0.375 0.125 0.875
26 1 0.75 0 0.75
30 1 0.875 0.125 0.875
17 1 0 0.25 0.75
21 1 0.125 0.375 0.875
25 1 0.495064 0.250452 0.753218
29 1 0.625336 0.37794 0.877657
31 1 0 0.5 0
35 1 0.125 0.625 0.125
39 1 0.510418 0.500572 0.0012999
43 1 0.623602 0.620553 0.123281
34 1 0.25 0.75 0
38 1 0.375 0.875 0.125
42 1 0.75 0.75 0
46 1 0.875 0.875 0.125
33 1 0.242956 0.505663 0.249083
37 1 0.377196 0.627627 0.380916
41 1 0.757501 0.50122 0.2482
45 1 0.885443 0.616772 0.377883
32 1 0 0.75 0.25
36 1 0.125 0.875 0.375
40 1 0.504156 0.747897 0.243981
44 1 0.617662 0.880079 0.378829
47 1 -0.00731577 0.498515 0.49647
51 1 0.129106 0.62634 0.631544
55 1 0.499167 0.495097 0.504112
50 1 0.253926 0.753338 0.505542
54 1 0.373778 0.880849 0.631898
58 1 0.743858 0.751726 0.497955
59 1 0.875 0.875 0.625
49 1 0.244792 0.497404 0.749215
53 1 0.374063 0.629125 0.873224
57 1 0.74826 0.505866 0.743918
61 1 0.875 0.625 0.875
48 1 0 0.75 0.75
52 1 0.125 0.875 0.875
56 1 0.504775 0.750928 0.750916
60 1 0.625 0.875 0.875
ITEM: TIMESTEP
200
ITEM: NUMBER OF ATOMS
61
ITEM: BOX BOUNDS pp pp pp
0.0000000000000000e+00 1.0859999999999999e+01
0.0000000000000000e+00 1.0859999999999999e+01
0.0000000000000000e+00 1.0859999999999999e+01
ITEM: ATOMS id type xs ys zs
1 1 0 0 0
5 1 0.125 0.125 0.125
9 1 0.5 0 0
13 1 0.625 0.125 0.125
4 1 0.25 0.25 0
8 1 0.377461 0.373224 0.120966
12 1 0.75 0.25 0
14 1 0.875 0.375 0.125
3 1 0.25 0 0.25
7 1 0.37411 0.115924 0.390505
11 1 0.75 0 0.25
15 1 0.875 0.125 0.375
2 1 0 0.25 0.25
6 1 0.120272 0.371401 0.368438
10 1 0.487078 0.244383 0.255657
16 1 0 0 0.5
20 1 0.125 0.125 0.625
24 1 0.505115 -0.00925088 0.503422
28 1 0.630729 0.121936 0.602664
23 1 0.363955 0.377273 0.624394
19 1 0.869307 0.378041 0.610362
27 1 0.761307 0.248232 0.499327
18 1 0.25 0 0.75
22 1 0.375 0.125 0.875
26 1 0.75 0 0.75
30 1 0.875 0.125 0.875
17 1 0 0.25 0.75
21 1 0.125 0.375 0.875
25 1 0.492835 0.251369 0.752742
29 1 0.627502 0.379621 0.876623
31 1 0 0.5 0
35 1 0.125 0.625 0.125
39 1 0.513212 0.500484 0.000781055
43 1 0.627616 0.618642 0.123712
34 1 0.25 0.75 0
38 1 0.375 0.875 0.125
42 1 0.75 0.75 0
46 1 0.875 0.875 0.125
33 1 0.240842 0.507907 0.249951
37 1 0.37965 0.629091 0.384849
41 1 0.763679 0.502969 0.246437
45 1 0.887234 0.616197 0.376714
32 1 0 0.75 0.25
36 1 0.125 0.875 0.375
40 1 0.505314 0.746977 0.241566
44 1 0.616146 0.879137 0.376701
47 1 -0.00486368 0.494558 0.496765
51 1 0.129649 0.627274 0.633564
55 1 0.497464 0.491197 0.50727
50 1 0.256436 0.756634 0.510669
54 1 0.376114 0.882877 0.636507
58 1 0.741253 0.752503 0.495688
59 1 0.875 0.875 0.625
49 1 0.242992 0.496155 0.750187
53 1 0.374729 0.630135 0.871871
57 1 0.746997 0.509268 0.73906
61 1 0.875 0.625 0.875
48 1 0 0.75 0.75
52 1 0.125 0.875 0.875
56 1 0.506993 0.752512 0.751426
60 1 0.625 0.875 0.875
ITEM: TIMESTEP
300
ITEM: NUMBER OF ATOMS
61
ITEM: BOX BOUNDS pp pp pp
0.0000000000000000e+00 1.0859999999999999e+01
0.0000000000000000e+00 1.0859999999999999e+01
0.0000000000000000e+00 1.0859999999999999e+01
ITEM: ATOMS id type xs ys zs
1 1 0 0 0
5 1 0.125 0.125 0.125
9 1 0.5 0 0
13 1 0.625 0.125 0.125
4 1 0.25 0.25 0
8 1 0.376727 0.376504 0.122785
12 1 0.75 0.25 0
14 1 0.875 0.375 0.125
3 1 0.25 0 0.25
7 1 0.372917 0.112115 0.39425
11 1 0.75 0 0.25
15 1 0.875 0.125 0.375
2 1 0 0.25 0.25
6 1 0.119178 0.374002 0.367843
10 1 0.482933 0.239533 0.256653
16 1 0 0 0.5
20 1 0.125 0.125 0.625
24 1 0.498697 -0.00791918 0.506323
28 1 0.632101 0.123694 0.605962
23 1 0.361039 0.374961 0.626037
19 1 0.869902 0.380911 0.616445
27 1 0.76079 0.244884 0.492095
18 1 0.25 0 0.75
22 1 0.375 0.125 0.875
26 1 0.75 0 0.75
30 1 0.875 0.125 0.875
17 1 0 0.25 0.75
21 1 0.125 0.375 0.875
25 1 0.494719 0.25261 0.747907
29 1 0.630895 0.379475 0.871238
31 1 0 0.5 0
35 1 0.125 0.625 0.125
39 1 0.508071 0.499972 -0.00135265
43 1 0.635898 0.620019 0.125784
34 1 0.25 0.75 0
38 1 0.375 0.875 0.125
42 1 0.75 0.75 0
46 1 0.875 0.875 0.125
33 1 0.245101 0.506106 0.252839
37 1 0.381594 0.629267 0.386434
41 1 0.766866 0.504857 0.245168
45 1 0.881428 0.623099 0.373284
32 1 0 0.75 0.25
36 1 0.125 0.875 0.375
40 1 0.503303 0.746833 0.243338
44 1 0.62009 0.872967 0.369189
47 1 0.00637489 0.491226 0.499705
51 1 0.126796 0.627452 0.630453
55 1 0.495406 0.489071 0.508907
50 1 0.256983 0.758984 0.514111
54 1 0.381776 0.880229 0.638248
58 1 0.7433 0.751816 0.493804
59 1 0.875 0.875 0.625
49 1 0.245284 0.497524 0.752891
53 1 0.376946 0.62762 0.871556
57 1 0.746353 0.510054 0.736153
61 1 0.875 0.625 0.875
48 1 0 0.75 0.75
52 1 0.125 0.875 0.875
56 1 0.50621 0.753824 0.751446
60 1 0.625 0.875 0.875
ITEM: TIMESTEP
400
ITEM: NUMBER OF ATOMS
61
ITEM: BOX BOUNDS pp pp pp
0.0000000000000000e+00 1.0859999999999999e+01
0.0000000000000000e+00 1.0859999999999999e+01
0.0000000000000000e+00 1.0859999999999999e+01
ITEM: ATOMS id type xs ys zs
1 1 0 0 0
5 1 0.125 0.125 0.125
9 1 0.5 0 0
13 1 0.625 0.125 0.125
4 1 0.25 0.25 0
8 1 0.374401 0.380248 0.126929
12 1 0.75 0.25 0
14 1 0.875 0.375 0.125
3 1 0.25 0 0.25
7 1 0.368893 0.11082 0.393773
11 1 0.75 0 0.25
15 1 0.875 0.125 0.375
2 1 0 0.25 0.25
6 1 0.121467 0.377373 0.368301
10 1 0.480859 0.23428 0.255406
16 1 0 0 0.5
20 1 0.125 0.125 0.625
24 1 0.495079 -0.00623983 0.50675
28 1 0.631102 0.12603 0.617032
23 1 0.359939 0.370812 0.628198
19 1 0.872566 0.380703 0.625416
27 1 0.756337 0.245194 0.486378
18 1 0.25 0 0.75
22 1 0.375 0.125 0.875
26 1 0.75 0 0.75
30 1 0.875 0.125 0.875
17 1 0 0.25 0.75
21 1 0.125 0.375 0.875
25 1 0.499796 0.253162 0.740969
29 1 0.632873 0.378212 0.863845
31 1 0 0.5 0
35 1 0.125 0.625 0.125
39 1 0.501019 0.499866 -0.00339698
43 1 0.641614 0.623298 0.126968
34 1 0.25 0.75 0
38 1 0.375 0.875 0.125
42 1 0.75 0.75 0
46 1 0.875 0.875 0.125
33 1 0.253591 0.502425 0.2561
37 1 0.381783 0.628287 0.386465
41 1 0.766491 0.506003 0.244953
45 1 0.874758 0.631619 0.372828
32 1 0 0.75 0.25
36 1 0.125 0.875 0.375
40 1 0.500105 0.74574 0.247068
44 1 0.625254 0.86727 0.362644
47 1 0.017016 0.493347 0.503245
51 1 0.123931 0.626491 0.625167
55 1 0.49326 0.488495 0.509172
50 1 0.255754 0.759183 0.514232
54 1 0.386484 0.875341 0.638094
58 1 0.749232 0.750232 0.492799
59 1 0.875 0.875 0.625
49 1 0.249462 0.501649 0.755413
53 1 0.379869 0.623616 0.872814
57 1 0.746599 0.509666 0.73611
61 1 0.875 0.625 0.875
48 1 0 0.75 0.75
52 1 0.125 0.875 0.875
56 1 0.504022 0.753034 0.752185
60 1 0.625 0.875 0.875
ITEM: TIMESTEP
500
ITEM: NUMBER OF ATOMS
61
ITEM: BOX BOUNDS pp pp pp
0.0000000000000000e+00 1.0859999999999999e+01
0.0000000000000000e+00 1.0859999999999999e+01
0.0000000000000000e+00 1.0859999999999999e+01
ITEM: ATOMS id type xs ys zs
1 1 0 0 0
5 1 0.125 0.125 0.125
9 1 0.5 0 0
13 1 0.625 0.125 0.125
4 1 0.25 0.25 0
8 1 0.372213 0.381203 0.131278
12 1 0.75 0.25 0
14 1 0.875 0.375 0.125
3 1 0.25 0 0.25
7 1 0.362478 0.11253 0.389719
11 1 0.75 0 0.25
15 1 0.875 0.125 0.375
2 1 0 0.25 0.25
6 1 0.12715 0.379311 0.36873
10 1 0.480341 0.22987 0.251498
16 1 0 0 0.5
20 1 0.125 0.125 0.625
24 1 0.498555 -0.00540428 0.504936
28 1 0.628207 0.127833 0.629014
23 1 0.360273 0.366844 0.6297
19 1 0.876939 0.377051 0.630761
27 1 0.74898 0.250242 0.486603
18 1 0.25 0 0.75
22 1 0.375 0.125 0.875
26 1 0.75 0 0.75
30 1 0.875 0.125 0.875
17 1 0 0.25 0.75
21 1 0.125 0.375 0.875
25 1 0.505569 0.252244 0.736053
29 1 0.631599 0.37653 0.857952
31 1 0 0.5 0
35 1 0.125 0.625 0.125
39 1 0.497795 0.499362 -0.0036099
43 1 0.639911 0.626659 0.126393
34 1 0.25 0.75 0
38 1 0.375 0.875 0.125
42 1 0.75 0.75 0
46 1 0.875 0.875 0.125
33 1 0.261773 0.500359 0.258391
37 1 0.379761 0.626357 0.386155
41 1 0.763362 0.506227 0.246564
45 1 0.872825 0.635906 0.375328
32 1 0 0.75 0.25
36 1 0.125 0.875 0.375
40 1 0.497257 0.743102 0.249725
44 1 0.629693 0.864954 0.361568
47 1 0.0192468 0.499292 0.505907
51 1 0.125205 0.626568 0.622783
55 1 0.491014 0.488607 0.508695
50 1 0.253363 0.756763 0.510294
54 1 0.385918 0.871655 0.635975
58 1 0.755483 0.750195 0.493821
59 1 0.875 0.875 0.625
49 1 0.252505 0.506185 0.755747
53 1 0.381684 0.621737 0.875412
57 1 0.748224 0.509554 0.739184
61 1 0.875 0.625 0.875
48 1 0 0.75 0.75
52 1 0.125 0.875 0.875
56 1 0.503077 0.748874 0.755029
60 1 0.625 0.875 0.875
ITEM: TIMESTEP
600
ITEM: NUMBER OF ATOMS
61
ITEM: BOX BOUNDS pp pp pp
0.0000000000000000e+00 1.0859999999999999e+01
0.0000000000000000e+00 1.0859999999999999e+01
0.0000000000000000e+00 1.0859999999999999e+01
ITEM: ATOMS id type xs ys zs
1 1 0 0 0
5 1 0.125 0.125 0.125
9 1 0.5 0 0
13 1 0.625 0.125 0.125
4 1 0.25 0.25 0
8 1 0.372939 0.377434 0.132827
12 1 0.75 0.25 0
14 1 0.875 0.375 0.125
3 1 0.25 0 0.25
7 1 0.357373 0.116165 0.384962
11 1 0.75 0 0.25
15 1 0.875 0.125 0.375
2 1 0 0.25 0.25
6 1 0.133373 0.379762 0.370083
10 1 0.480407 0.227206 0.245635
16 1 0 0 0.5
20 1 0.125 0.125 0.625
24 1 0.506349 -0.00496426 0.501778
28 1 0.626532 0.127154 0.633804
23 1 0.361464 0.364374 0.630057
19 1 0.88071 0.373096 0.63017
27 1 0.741671 0.256991 0.492779
18 1 0.25 0 0.75
22 1 0.375 0.125 0.875
26 1 0.75 0 0.75
30 1 0.875 0.125 0.875
17 1 0 0.25 0.75
21 1 0.125 0.375 0.875
25 1 0.507507 0.251403 0.73761
29 1 0.627731 0.375098 0.856488
31 1 0 0.5 0
35 1 0.125 0.625 0.125
39 1 0.500419 0.497243 -0.00101584
43 1 0.630928 0.627865 0.125099
34 1 0.25 0.75 0
38 1 0.375 0.875 0.125
42 1 0.75 0.75 0
46 1 0.875 0.875 0.125
33 1 0.264952 0.50185 0.25923
37 1 0.376797 0.624088 0.386382
41 1 0.758417 0.506258 0.249668
45 1 0.878035 0.632289 0.378163
32 1 0 0.75 0.25
36 1 0.125 0.875 0.375
40 1 0.495832 0.740759 0.250286
44 1 0.632302 0.865742 0.366483
47 1 0.0115554 0.504726 0.504692
51 1 0.131279 0.629605 0.626158
55 1 0.488673 0.488684 0.508145
50 1 0.250867 0.752629 0.503187
54 1 0.38081 0.870066 0.631785
58 1 0.758455 0.753419 0.497868
59 1 0.875 0.875 0.625
49 1 0.253097 0.508241 0.753608
53 1 0.380812 0.623642 0.878867
57 1 0.751798 0.50926 0.744082
61 1 0.875 0.625 0.875
48 1 0 0.75 0.75
52 1 0.125 0.875 0.875
56 1 0.503857 0.743127 0.758746
60 1 0.625 0.875 0.875
ITEM: TIMESTEP
700
ITEM: NUMBER OF ATOMS
61
ITEM: BOX BOUNDS pp pp pp
0.0000000000000000e+00 1.0859999999999999e+01
0.0000000000000000e+00 1.0859999999999999e+01
0.0000000000000000e+00 1.0859999999999999e+01
ITEM: ATOMS id type xs ys zs
1 1 0 0 0
5 1 0.125 0.125 0.125
9 1 0.5 0 0
13 1 0.625 0.125 0.125
4 1 0.25 0.25 0
8 1 0.376543 0.370945 0.130476
12 1 0.75 0.25 0
14 1 0.875 0.375 0.125
3 1 0.25 0 0.25
7 1 0.356923 0.120537 0.381981
11 1 0.75 0 0.25
15 1 0.875 0.125 0.375
2 1 0 0.25 0.25
6 1 0.136637 0.379354 0.373367
10 1 0.480377 0.226187 0.239949
16 1 0 0 0.5
20 1 0.125 0.125 0.625
24 1 0.513228 -0.00421563 0.498228
28 1 0.627482 0.123725 0.629147
23 1 0.363195 0.363714 0.62951
19 1 0.88137 0.372186 0.624547
27 1 0.737268 0.262042 0.502504
18 1 0.25 0 0.75
22 1 0.375 0.125 0.875
26 1 0.75 0 0.75
30 1 0.875 0.125 0.875
17 1 0 0.25 0.75
21 1 0.125 0.375 0.875
25 1 0.502827 0.250728 0.745652
29 1 0.624274 0.375268 0.861165
31 1 0 0.5 0
35 1 0.125 0.625 0.125
39 1 0.506194 0.493755 0.00306112
43 1 0.619215 0.625591 0.123934
34 1 0.25 0.75 0
38 1 0.375 0.875 0.125
42 1 0.75 0.75 0
46 1 0.875 0.875 0.125
33 1 0.261646 0.50512 0.256862
37 1 0.375118 0.622356 0.38654
41 1 0.75271 0.506447 0.252781
45 1 0.885656 0.624276 0.380599
32 1 0 0.75 0.25
36 1 0.125 0.875 0.375
40 1 0.49618 0.741189 0.250426
44 1 0.632106 0.868606 0.374628
47 1 0.000789138 0.50774 0.501475
51 1 0.136576 0.63323 0.63178
55 1 0.486513 0.488461 0.507969
50 1 0.249433 0.748976 0.495659
54 1 0.375138 0.869546 0.626318
58 1 0.758849 0.756639 0.502436
59 1 0.875 0.875 0.625
49 1 0.252618 0.506572 0.751135
53 1 0.377656 0.62639 0.883114
57 1 0.756568 0.506787 0.748628
61 1 0.875 0.625 0.875
48 1 0 0.75 0.75
52 1 0.125 0.875 0.875
56 1 0.504887 0.739275 0.760314
60 1 0.625 0.875 0.875
ITEM: TIMESTEP
800
ITEM: NUMBER OF ATOMS
61
ITEM: BOX BOUNDS pp pp pp
0.0000000000000000e+00 1.0859999999999999e+01
0.0000000000000000e+00 1.0859999999999999e+01
0.0000000000000000e+00 1.0859999999999999e+01
ITEM: ATOMS id type xs ys zs
1 1 0 0 0
5 1 0.125 0.125 0.125
9 1 0.5 0 0
13 1 0.625 0.125 0.125
4 1 0.25 0.25 0
8 1 0.379634 0.366366 0.125189
12 1 0.75 0.25 0
14 1 0.875 0.375 0.125
3 1 0.25 0 0.25
7 1 0.361836 0.124338 0.381322
11 1 0.75 0 0.25
15 1 0.875 0.125 0.375
2 1 0 0.25 0.25
6 1 0.135272 0.378689 0.377929
10 1 0.480663 0.225882 0.23696
16 1 0 0 0.5
20 1 0.125 0.125 0.625
24 1 0.514195 -0.00243882 0.495845
28 1 0.628419 0.120784 0.620954
23 1 0.365339 0.364555 0.628807
19 1 0.878738 0.374934 0.617969
27 1 0.736759 0.26392 0.511805
18 1 0.25 0 0.75
22 1 0.375 0.125 0.875
26 1 0.75 0 0.75
30 1 0.875 0.125 0.875
17 1 0 0.25 0.75
21 1 0.125 0.375 0.875
25 1 0.494686 0.247922 0.754821
29 1 0.623971 0.376967 0.870898
31 1 0 0.5 0
35 1 0.125 0.625 0.125
39 1 0.509206 0.489546 0.00599093
43 1 0.611722 0.621892 0.123862
34 1 0.25 0.75 0
38 1 0.375 0.875 0.125
42 1 0.75 0.75 0
46 1 0.875 0.875 0.125
33 1 0.254307 0.506722 0.250462
37 1 0.375717 0.621227 0.384268
41 1 0.747666 0.506212 0.254606
45 1 0.886971 0.619804 0.380114
32 1 0 0.75 0.25
36 1 0.125 0.875 0.375
40 1 0.497319 0.745165 0.252404
44 1 0.630205 0.871929 0.381166
47 1 -0.0031908 0.505869 0.501189
51 1 0.136737 0.635164 0.634903
55 1 0.485186 0.488132 0.508095
50 1 0.248992 0.74752 0.49091
54 1 0.372078 0.869448 0.620759
58 1 0.758464 0.755657 0.504522
59 1 0.875 0.875 0.625
49 1 0.252903 0.501779 0.751101
53 1 0.374758 0.625786 0.88692
57 1 0.7605 0.500641 0.751309
61 1 0.875 0.625 0.875
48 1 0 0.75 0.75
52 1 0.125 0.875 0.875
56 1 0.504545 0.739051 0.75852
60 1 0.625 0.875 0.875
ITEM: TIMESTEP
900
ITEM: NUMBER OF ATOMS
61
ITEM: BOX BOUNDS pp pp pp
0.0000000000000000e+00 1.0859999999999999e+01
0.0000000000000000e+00 1.0859999999999999e+01
0.0000000000000000e+00 1.0859999999999999e+01
ITEM: ATOMS id type xs ys zs
1 1 0 0 0
5 1 0.125 0.125 0.125
9 1 0.5 0 0
13 1 0.625 0.125 0.125
4 1 0.25 0.25 0
8 1 0.37899 0.365995 0.11928
12 1 0.75 0.25 0
14 1 0.875 0.375 0.125
3 1 0.25 0 0.25
7 1 0.370242 0.125955 0.38226
11 1 0.75 0 0.25
15 1 0.875 0.125 0.375
2 1 0 0.25 0.25
6 1 0.129933 0.378275 0.381722
10 1 0.482072 0.226473 0.237263
16 1 0 0 0.5
20 1 0.125 0.125 0.625
24 1 0.506771 0.000428749 0.495378
28 1 0.627321 0.119914 0.617133
23 1 0.367583 0.365824 0.629093
19 1 0.875584 0.379249 0.61615
27 1 0.739563 0.262265 0.515052
18 1 0.25 0 0.75
22 1 0.375 0.125 0.875
26 1 0.75 0 0.75
30 1 0.875 0.125 0.875
17 1 0 0.25 0.75
21 1 0.125 0.375 0.875
25 1 0.489361 0.244951 0.759949
29 1 0.626921 0.37684 0.881007
31 1 0 0.5 0
35 1 0.125 0.625 0.125
39 1 0.505598 0.486393 0.00647189
43 1 0.612363 0.62045 0.126238
34 1 0.25 0.75 0
38 1 0.375 0.875 0.125
42 1 0.75 0.75 0
46 1 0.875 0.875 0.125
33 1 0.247377 0.504215 0.243112
37 1 0.376965 0.620162 0.377984
41 1 0.744206 0.504774 0.254465
45 1 0.879561 0.621927 0.375688
32 1 0 0.75 0.25
36 1 0.125 0.875 0.375
40 1 0.498464 0.751196 0.256311
44 1 0.628925 0.873799 0.38251
47 1 0.00283053 0.499974 0.504277
51 1 0.132647 0.63372 0.633796
55 1 0.485542 0.488271 0.507748
50 1 0.248884 0.747895 0.490541
54 1 0.372793 0.870013 0.616681
58 1 0.75759 0.75012 0.503399
59 1 0.875 0.875 0.625
49 1 0.253557 0.496213 0.753857
53 1 0.374721 0.6207 0.888028
57 1 0.761889 0.491895 0.753006
61 1 0.875 0.625 0.875
48 1 0 0.75 0.75
52 1 0.125 0.875 0.875
56 1 0.501562 0.742079 0.754359
60 1 0.625 0.875 0.875
ITEM: TIMESTEP
1000
ITEM: NUMBER OF ATOMS
61
ITEM: BOX BOUNDS pp pp pp
0.0000000000000000e+00 1.0859999999999999e+01
0.0000000000000000e+00 1.0859999999999999e+01
0.0000000000000000e+00 1.0859999999999999e+01
ITEM: ATOMS id type xs ys zs
1 1 0 0 0
5 1 0.125 0.125 0.125
9 1 0.5 0 0
13 1 0.625 0.125 0.125
4 1 0.25 0.25 0
8 1 0.373856 0.368101 0.116785
12 1 0.75 0.25 0
14 1 0.875 0.375 0.125
3 1 0.25 0 0.25
7 1 0.378137 0.125006 0.383152
11 1 0.75 0 0.25
15 1 0.875 0.125 0.375
2 1 0 0.25 0.25
6 1 0.123394 0.377218 0.382101
10 1 0.484718 0.230034 0.238909
16 1 0 0 0.5
20 1 0.125 0.125 0.625
24 1 0.494803 0.0023165 0.496681
28 1 0.623502 0.121163 0.620686
23 1 0.369571 0.366525 0.630842
19 1 0.874769 0.381502 0.62057
27 1 0.744954 0.256965 0.509883
18 1 0.25 0 0.75
22 1 0.375 0.125 0.875
26 1 0.75 0 0.75
30 1 0.875 0.125 0.875
17 1 0 0.25 0.75
21 1 0.125 0.375 0.875
25 1 0.491715 0.245239 0.758916
29 1 0.630733 0.372743 0.88674
31 1 0 0.5 0
35 1 0.125 0.625 0.125
39 1 0.498108 0.487908 0.00520905
43 1 0.618795 0.622184 0.130234
34 1 0.25 0.75 0
38 1 0.375 0.875 0.125
42 1 0.75 0.75 0
46 1 0.875 0.875 0.125
33 1 0.244068 0.49693 0.238754
37 1 0.376497 0.618701 0.369415
41 1 0.742847 0.501457 0.252279
45 1 0.870002 0.625901 0.371492
32 1 0 0.75 0.25
36 1 0.125 0.875 0.375
40 1 0.499727 0.75684 0.259617
44 1 0.62859 0.874637 0.37975
47 1 0.0121244 0.496711 0.506482
51 1 0.127354 0.627882 0.629491
55 1 0.487739 0.489487 0.505901
50 1 0.249332 0.748344 0.493665
54 1 0.37614 0.871596 0.615637
58 1 0.755535 0.743356 0.500519
59 1 0.875 0.875 0.625
49 1 0.253304 0.492668 0.757249
53 1 0.377466 0.613747 0.885205
57 1 0.760151 0.484414 0.756468
61 1 0.875 0.625 0.875
48 1 0 0.75 0.75
52 1 0.125 0.875 0.875
56 1 0.496134 0.747109 0.749704
60 1 0.625 0.875 0.875
ITEM: TIMESTEP
1100
ITEM: NUMBER OF ATOMS
61
ITEM: BOX BOUNDS pp pp pp
0.0000000000000000e+00 1.0859999999999999e+01
0.0000000000000000e+00 1.0859999999999999e+01
0.0000000000000000e+00 1.0859999999999999e+01
ITEM: ATOMS id type xs ys zs
1 1 0 0 0
5 1 0.125 0.125 0.125
9 1 0.5 0 0
13 1 0.625 0.125 0.125
4 1 0.25 0.25 0
8 1 0.366598 0.370239 0.119776
12 1 0.75 0.25 0
14 1 0.875 0.375 0.125
3 1 0.25 0 0.25
7 1 0.380365 0.123775 0.380939
11 1 0.75 0 0.25
15 1 0.875 0.125 0.375
2 1 0 0.25 0.25
6 1 0.119584 0.373775 0.377218
10 1 0.488385 0.237724 0.240415
16 1 0 0 0.5
20 1 0.125 0.125 0.625
24 1 0.487674 0.000915024 0.500307
28 1 0.618099 0.124408 0.628494
23 1 0.371663 0.367237 0.633222
19 1 0.876901 0.378999 0.626935
27 1 0.752266 0.248804 0.499728
18 1 0.25 0 0.75
22 1 0.375 0.125 0.875
26 1 0.75 0 0.75
30 1 0.875 0.125 0.875
17 1 0 0.25 0.75
21 1 0.125 0.375 0.875
25 1 0.500905 0.248309 0.75393
29 1 0.630856 0.367281 0.886413
31 1 0 0.5 0
35 1 0.125 0.625 0.125
39 1 0.493684 0.493784 0.00391733
43 1 0.625657 0.626018 0.133194
34 1 0.25 0.75 0
38 1 0.375 0.875 0.125
42 1 0.75 0.75 0
46 1 0.875 0.875 0.125
33 1 0.243916 0.487594 0.239047
37 1 0.373838 0.616529 0.362271
41 1 0.744017 0.496256 0.249068
45 1 0.864637 0.626814 0.368988
32 1 0 0.75 0.25
36 1 0.125 0.875 0.375
40 1 0.500578 0.75967 0.259027
44 1 0.628445 0.876393 0.37731
47 1 0.0154799 0.498262 0.506622
51 1 0.124813 0.62032 0.625344
55 1 0.490532 0.491785 0.502288
50 1 0.25061 0.747415 0.497946
54 1 0.377705 0.873649 0.618321
58 1 0.751062 0.739903 0.498595
59 1 0.875 0.875 0.625
49 1 0.25184 0.492218 0.758302
53 1 0.379623 0.609998 0.878405
57 1 0.755972 0.481675 0.763043
61 1 0.875 0.625 0.875
48 1 0 0.75 0.75
52 1 0.125 0.875 0.875
56 1 0.490763 0.752477 0.746971
60 1 0.625 0.875 0.875
ITEM: TIMESTEP
1200
ITEM: NUMBER OF ATOMS
61
ITEM: BOX BOUNDS pp pp pp
0.0000000000000000e+00 1.0859999999999999e+01
0.0000000000000000e+00 1.0859999999999999e+01
0.0000000000000000e+00 1.0859999999999999e+01
ITEM: ATOMS id type xs ys zs
1 1 0 0 0
5 1 0.125 0.125 0.125
9 1 0.5 0 0
13 1 0.625 0.125 0.125
4 1 0.25 0.25 0
8 1 0.362839 0.371091 0.124769
12 1 0.75 0.25 0
14 1 0.875 0.375 0.125
3 1 0.25 0 0.25
7 1 0.376222 0.123596 0.374585
11 1 0.75 0 0.25
15 1 0.875 0.125 0.375
2 1 0 0.25 0.25
6 1 0.119416 0.368924 0.36957
10 1 0.492677 0.248084 0.242324
16 1 0 0 0.5
20 1 0.125 0.125 0.625
24 1 0.490444 -0.00184617 0.505014
28 1 0.615284 0.127067 0.633593
23 1 0.374703 0.369287 0.634635
19 1 0.87996 0.372866 0.631025
27 1 0.758808 0.240682 0.491796
18 1 0.25 0 0.75
22 1 0.375 0.125 0.875
26 1 0.75 0 0.75
30 1 0.875 0.125 0.875
17 1 0 0.25 0.75
21 1 0.125 0.375 0.875
25 1 0.510372 0.252188 0.750256
29 1 0.624777 0.364336 0.88219
31 1 0 0.5 0
35 1 0.125 0.625 0.125
39 1 0.495395 0.499654 0.00467842
43 1 0.62943 0.630533 0.133359
34 1 0.25 0.75 0
38 1 0.375 0.875 0.125
42 1 0.75 0.75 0
46 1 0.875 0.875 0.125
33 1 0.243301 0.48169 0.243937
37 1 0.370489 0.614361 0.358989
41 1 0.747095 0.490426 0.246334
45 1 0.865775 0.623121 0.368331
32 1 0 0.75 0.25
36 1 0.125 0.875 0.375
40 1 0.500548 0.758447 0.254034
44 1 0.62759 0.879211 0.377978
47 1 0.00796761 0.500565 0.502389
51 1 0.127753 0.616248 0.625421
55 1 0.492216 0.49454 0.497587
50 1 0.252164 0.744814 0.500945
54 1 0.373144 0.87525 0.623978
58 1 0.74456 0.741707 0.498872
59 1 0.875 0.875 0.625
49 1 0.249513 0.493683 0.755118
53 1 0.378613 0.613263 0.86938
57 1 0.752096 0.483844 0.769739
61 1 0.875 0.625 0.875
48 1 0 0.75 0.75
52 1 0.125 0.875 0.875
56 1 0.488479 0.756391 0.748258
60 1 0.625 0.875 0.875
ITEM: TIMESTEP
1300
ITEM: NUMBER OF ATOMS
61
ITEM: BOX BOUNDS pp pp pp
0.0000000000000000e+00 1.0859999999999999e+01
0.0000000000000000e+00 1.0859999999999999e+01
0.0000000000000000e+00 1.0859999999999999e+01
ITEM: ATOMS id type xs ys zs
1 1 0 0 0
5 1 0.125 0.125 0.125
9 1 0.5 0 0
13 1 0.625 0.125 0.125
4 1 0.25 0.25 0
8 1 0.365833 0.370971 0.127458
12 1 0.75 0.25 0
14 1 0.875 0.375 0.125
3 1 0.25 0 0.25
7 1 0.37097 0.123707 0.367187
11 1 0.75 0 0.25
15 1 0.875 0.125 0.375
2 1 0 0.25 0.25
6 1 0.120529 0.365334 0.365392
10 1 0.497309 0.257771 0.245767
16 1 0 0 0.5
20 1 0.125 0.125 0.625
24 1 0.498337 -0.00211065 0.508173
28 1 0.619698 0.125772 0.631081
23 1 0.379188 0.373183 0.633795
19 1 0.880158 0.366934 0.631155
27 1 0.760384 0.237075 0.492401
18 1 0.25 0 0.75
22 1 0.375 0.125 0.875
26 1 0.75 0 0.75
30 1 0.875 0.125 0.875
17 1 0 0.25 0.75
21 1 0.125 0.375 0.875
25 1 0.511867 0.255451 0.750246
29 1 0.616466 0.36648 0.879736
31 1 0 0.5 0
35 1 0.125 0.625 0.125
39 1 0.500251 0.503833 0.00663784
43 1 0.630178 0.63326 0.130891
34 1 0.25 0.75 0
38 1 0.375 0.875 0.125
42 1 0.75 0.75 0
46 1 0.875 0.875 0.125
33 1 0.24068 0.483093 0.25049
37 1 0.368239 0.613869 0.360241
41 1 0.749933 0.486711 0.245138
45 1 0.870408 0.617919 0.370075
32 1 0 0.75 0.25
36 1 0.125 0.875 0.375
40 1 0.500073 0.754055 0.247712
44 1 0.62466 0.881225 0.380629
47 1 -0.00548659 0.500126 0.494958
51 1 0.131996 0.616862 0.62779
55 1 0.492091 0.496991 0.492747
50 1 0.252988 0.741453 0.501511
54 1 0.364798 0.876059 0.629793
58 1 0.739243 0.746754 0.50003
59 1 0.875 0.875 0.625
49 1 0.247447 0.495077 0.74877
53 1 0.375315 0.622034 0.86274
57 1 0.750899 0.488251 0.772449
61 1 0.875 0.625 0.875
48 1 0 0.75 0.75
52 1 0.125 0.875 0.875
56 1 0.490157 0.75847 0.752869
60 1 0.625 0.875 0.875
ITEM: TIMESTEP
1400
ITEM: NUMBER OF ATOMS
61
ITEM: BOX BOUNDS pp pp pp
0.0000000000000000e+00 1.0859999999999999e+01
0.0000000000000000e+00 1.0859999999999999e+01
0.0000000000000000e+00 1.0859999999999999e+01
ITEM: ATOMS id type xs ys zs
1 1 0 0 0
5 1 0.125 0.125 0.125
9 1 0.5 0 0
13 1 0.625 0.125 0.125
4 1 0.25 0.25 0
8 1 0.372769 0.372895 0.127523
12 1 0.75 0.25 0
14 1 0.875 0.375 0.125
3 1 0.25 0 0.25
7 1 0.370086 0.12474 0.362526
11 1 0.75 0 0.25
15 1 0.875 0.125 0.375
2 1 0 0.25 0.25
6 1 0.12044 0.364402 0.368863
10 1 0.50237 0.263461 0.250831
16 1 0 0 0.5
20 1 0.125 0.125 0.625
24 1 0.503313 0.000444466 0.509255
28 1 0.629992 0.122922 0.623969
23 1 0.384506 0.378728 0.630031
19 1 0.875067 0.364689 0.627553
27 1 0.756185 0.239198 0.501808
18 1 0.25 0 0.75
22 1 0.375 0.125 0.875
26 1 0.75 0 0.75
30 1 0.875 0.125 0.875
17 1 0 0.25 0.75
21 1 0.125 0.375 0.875
25 1 0.504006 0.254364 0.750623
29 1 0.612201 0.374184 0.882713
31 1 0 0.5 0
35 1 0.125 0.625 0.125
39 1 0.503156 0.507135 0.007536
43 1 0.62997 0.631784 0.126939
34 1 0.25 0.75 0
38 1 0.375 0.875 0.125
42 1 0.75 0.75 0
46 1 0.875 0.875 0.125
33 1 0.238852 0.490712 0.253315
37 1 0.367951 0.616357 0.365288
41 1 0.750618 0.487734 0.246029
45 1 0.873001 0.615684 0.372468
32 1 0 0.75 0.25
36 1 0.125 0.875 0.375
40 1 0.499134 0.748788 0.244114
44 1 0.620064 0.880689 0.381583
47 1 -0.0154299 0.495496 0.489743
51 1 0.130648 0.620652 0.627255
55 1 0.491056 0.498463 0.488577
50 1 0.252334 0.739224 0.499833
54 1 0.360055 0.87529 0.632241
58 1 0.738071 0.75205 0.501186
59 1 0.875 0.875 0.625
49 1 0.24774 0.495187 0.743318
53 1 0.371038 0.631153 0.862471
57 1 0.751982 0.491587 0.769758
61 1 0.875 0.625 0.875
48 1 0 0.75 0.75
52 1 0.125 0.875 0.875
56 1 0.494247 0.760304 0.756805
60 1 0.625 0.875 0.875
ITEM: TIMESTEP
1500
ITEM: NUMBER OF ATOMS
61
ITEM: BOX BOUNDS pp pp pp
0.0000000000000000e+00 1.0859999999999999e+01
0.0000000000000000e+00 1.0859999999999999e+01
0.0000000000000000e+00 1.0859999999999999e+01
ITEM: ATOMS id type xs ys zs
1 1 0 0 0
5 1 0.125 0.125 0.125
9 1 0.5 0 0
13 1 0.625 0.125 0.125
4 1 0.25 0.25 0
8 1 0.379664 0.378361 0.126545
12 1 0.75 0.25 0
14 1 0.875 0.375 0.125
3 1 0.25 0 0.25
7 1 0.375431 0.127262 0.362481
11 1 0.75 0 0.25
15 1 0.875 0.125 0.375
2 1 0 0.25 0.25
6 1 0.119387 0.366976 0.377866
10 1 0.507608 0.26408 0.256251
16 1 0 0 0.5
20 1 0.125 0.125 0.625
24 1 0.501666 0.00392942 0.507772
28 1 0.638879 0.12131 0.619731
23 1 0.388716 0.38459 0.624168
19 1 0.866857 0.367293 0.623611
27 1 0.750417 0.244403 0.512017
18 1 0.25 0 0.75
22 1 0.375 0.125 0.875
26 1 0.75 0 0.75
30 1 0.875 0.125 0.875
17 1 0 0.25 0.75
21 1 0.125 0.375 0.875
25 1 0.494019 0.249154 0.750384
29 1 0.613336 0.382689 0.887084
31 1 0 0.5 0
35 1 0.125 0.625 0.125
39 1 0.500679 0.5107 0.00636427
43 1 0.630176 0.626317 0.123549
34 1 0.25 0.75 0
38 1 0.375 0.875 0.125
42 1 0.75 0.75 0
46 1 0.875 0.875 0.125
33 1 0.239669 0.500069 0.251744
37 1 0.369349 0.621502 0.371465
41 1 0.749103 0.493678 0.248305
45 1 0.869787 0.619464 0.372729
32 1 0 0.75 0.25
36 1 0.125 0.875 0.375
40 1 0.497422 0.744661 0.244997
44 1 0.615786 0.877511 0.378477
47 1 -0.0166662 0.486847 0.49085
51 1 0.122575 0.624479 0.622557
55 1 0.49147 0.498716 0.485245
50 1 0.249572 0.740504 0.497076
54 1 0.362797 0.872577 0.630038
58 1 0.741662 0.755706 0.502018
59 1 0.875 0.875 0.625
49 1 0.250181 0.495432 0.741313
53 1 0.367044 0.636684 0.868104
57 1 0.753684 0.492413 0.762411
61 1 0.875 0.625 0.875
48 1 0 0.75 0.75
52 1 0.125 0.875 0.875
56 1 0.498393 0.762034 0.756879
60 1 0.625 0.875 0.875
ITEM: TIMESTEP
1600
ITEM: NUMBER OF ATOMS
61
ITEM: BOX BOUNDS pp pp pp
0.0000000000000000e+00 1.0859999999999999e+01
0.0000000000000000e+00 1.0859999999999999e+01
0.0000000000000000e+00 1.0859999999999999e+01
ITEM: ATOMS id type xs ys zs
1 1 0 0 0
5 1 0.125 0.125 0.125
9 1 0.5 0 0
13 1 0.625 0.125 0.125
4 1 0.25 0.25 0
8 1 0.383989 0.384951 0.126486
12 1 0.75 0.25 0
14 1 0.875 0.375 0.125
3 1 0.25 0 0.25
7 1 0.384668 0.129804 0.366409
11 1 0.75 0 0.25
15 1 0.875 0.125 0.375
2 1 0 0.25 0.25
6 1 0.119492 0.371703 0.386124
10 1 0.512353 0.261392 0.259695
16 1 0 0 0.5
20 1 0.125 0.125 0.625
24 1 0.495033 0.00671821 0.503504
28 1 0.638602 0.119081 0.623198
23 1 0.390057 0.388145 0.619443
19 1 0.861371 0.373178 0.624064
27 1 0.746798 0.250419 0.513165
18 1 0.25 0 0.75
22 1 0.375 0.125 0.875
26 1 0.75 0 0.75
30 1 0.875 0.125 0.875
17 1 0 0.25 0.75
21 1 0.125 0.375 0.875
25 1 0.489215 0.24404 0.749198
29 1 0.617941 0.386927 0.887286
31 1 0 0.5 0
35 1 0.125 0.625 0.125
39 1 0.493265 0.515106 0.00284839
43 1 0.630136 0.620458 0.122583
34 1 0.25 0.75 0
38 1 0.375 0.875 0.125
42 1 0.75 0.75 0
46 1 0.875 0.875 0.125
33 1 0.243315 0.506609 0.24982
37 1 0.371106 0.627419 0.375389
41 1 0.746776 0.501587 0.250214
45 1 0.864349 0.626969 0.372985
32 1 0 0.75 0.25
36 1 0.125 0.875 0.375
40 1 0.495709 0.742543 0.248514
44 1 0.613342 0.873416 0.372779
47 1 -0.0130131 0.480837 0.49656
51 1 0.111792 0.624742 0.615882
55 1 0.495535 0.498603 0.48195
50 1 0.244813 0.746152 0.495421
54 1 0.371247 0.87006 0.624519
58 1 0.748018 0.757246 0.501443
59 1 0.875 0.875 0.625
49 1 0.252119 0.498741 0.74204
53 1 0.366134 0.637174 0.8751
57 1 0.754133 0.492563 0.75358
61 1 0.875 0.625 0.875
48 1 0 0.75 0.75
52 1 0.125 0.875 0.875
56 1 0.500256 0.761267 0.753553
60 1 0.625 0.875 0.875
ITEM: TIMESTEP
1700
ITEM: NUMBER OF ATOMS
61
ITEM: BOX BOUNDS pp pp pp
0.0000000000000000e+00 1.0859999999999999e+01