ITEM: TIMESTEP
0
ITEM: NUMBER OF ATOMS
61
ITEM: BOX BOUNDS pp pp pp
0.0000000000000000e+00 1.0859999999999999e+01
0.0000000000000000e+00 1.0859999999999999e+01
0.0000000000000000e+00 1.0859999999999999e+01
ITEM: ATOMS id type xs ys zs
1 1 0 0 0
5 1 0.125 0.125 0.125
9 1 0.5 0 0
13 1 0.625 0.125 0.125
4 1 0.25 0.25 0
8 1 0.375 0.375 0.125
12 1 0.75 0.25 0
14 1 0.875 0.375 0.125
3 1 0.25 0 0.25
7 1 0.375 0.125 0.375
11 1 0.75 0 0.25
15 1 0.875 0.125 0.375
2 1 0 0.25 0.25
6 1 0.125 0.375 0.375
10 1 0.5 0.25 0.25
16 1 0 0 0.5
20 1 0.125 0.125 0.625
24 1 0.5 0 0.5
28 1 0.625 0.125 0.625
19 1 0.25 0.25 0.5
23 1 0.875 0.375 0.625
27 1 0.75 0.25 0.5
18 1 0.25 0 0.75
22 1 0.375 0.125 0.875
26 1 0.75 0 0.75
30 1 0.875 0.125 0.875
17 1 0 0.25 0.75
21 1 0.125 0.375 0.875
25 1 0.5 0.25 0.75
29 1 0.625 0.375 0.875
31 1 0 0.5 0
35 1 0.125 0.625 0.125
39 1 0.5 0.5 0
43 1 0.625 0.625 0.125
34 1 0.25 0.75 0
38 1 0.375 0.875 0.125
42 1 0.75 0.75 0
46 1 0.875 0.875 0.125
33 1 0.25 0.5 0.25
37 1 0.375 0.625 0.375
41 1 0.75 0.5 0.25
45 1 0.875 0.625 0.375
32 1 0 0.75 0.25
36 1 0.125 0.875 0.375
40 1 0.5 0.75 0.25
44 1 0.625 0.875 0.375
47 1 0 0.5 0.5
51 1 0.125 0.625 0.625
55 1 0.5 0.5 0.5
50 1 0.25 0.75 0.5
54 1 0.375 0.875 0.625
58 1 0.75 0.75 0.5
59 1 0.875 0.875 0.625
49 1 0.25 0.5 0.75
53 1 0.375 0.625 0.875
57 1 0.75 0.5 0.75
61 1 0.875 0.625 0.875
48 1 0 0.75 0.75
52 1 0.125 0.875 0.875
56 1 0.5 0.75 0.75
60 1 0.625 0.875 0.875
ITEM: TIMESTEP
100
ITEM: NUMBER OF ATOMS
61
ITEM: BOX BOUNDS pp pp pp
0.0000000000000000e+00 1.0859999999999999e+01
0.0000000000000000e+00 1.0859999999999999e+01
0.0000000000000000e+00 1.0859999999999999e+01
ITEM: ATOMS id type xs ys zs
1 1 0 0 0
5 1 0.125 0.125 0.125
9 1 0.5 0 0
13 1 0.625 0.125 0.125
4 1 0.25 0.25 0
8 1 0.375836 0.372567 0.122186
12 1 0.75 0.25 0
14 1 0.875 0.375 0.125
3 1 0.25 0 0.25
7 1 0.373921 0.120748 0.383994
11 1 0.75 0 0.25
15 1 0.875 0.125 0.375
2 1 0 0.25 0.25
6 1 0.122568 0.371738 0.371976
10 1 0.492659 0.247788 0.253116
16 1 0 0 0.5
20 1 0.125 0.125 0.625
24 1 0.506139 -0.00700737 0.501155
28 1 0.628131 0.12259 0.609605
19 1 0.24582 0.248933 0.48913
23 1 0.868701 0.377294 0.623155
27 1 0.757472 0.250726 0.501934
18 1 0.25 0 0.75
22 1 0.375 0.125 0.875
26 1 0.75 0 0.75
30 1 0.875 0.125 0.875
17 1 0 0.25 0.75
21 1 0.125 0.375 0.875
25 1 0.496139 0.250185 0.753911
29 1 0.626015 0.378166 0.877269
31 1 0 0.5 0
35 1 0.125 0.625 0.125
39 1 0.509451 0.500305 0.00121381
43 1 0.622806 0.620335 0.122838
34 1 0.25 0.75 0
38 1 0.375 0.875 0.125
42 1 0.75 0.75 0
46 1 0.875 0.875 0.125
33 1 0.242418 0.505793 0.249443
37 1 0.376968 0.627593 0.381148
41 1 0.75701 0.501062 0.247538
45 1 0.885335 0.616531 0.376974
32 1 0 0.75 0.25
36 1 0.125 0.875 0.375
40 1 0.503719 0.747772 0.243743
44 1 0.617449 0.880055 0.378314
47 1 -0.00768514 0.498693 0.497816
51 1 0.129679 0.626402 0.632313
55 1 0.499538 0.495293 0.503961
50 1 0.254063 0.75345 0.505944
54 1 0.374184 0.881002 0.631977
58 1 0.743937 0.751711 0.497152
59 1 0.875 0.875 0.625
49 1 0.24517 0.497854 0.750054
53 1 0.374943 0.629281 0.873202
57 1 0.748621 0.506242 0.743544
61 1 0.875 0.625 0.875
48 1 0 0.75 0.75
52 1 0.125 0.875 0.875
56 1 0.505494 0.751081 0.750707
60 1 0.625 0.875 0.875
ITEM: TIMESTEP
200
ITEM: NUMBER OF ATOMS
61
ITEM: BOX BOUNDS pp pp pp
0.0000000000000000e+00 1.0859999999999999e+01
0.0000000000000000e+00 1.0859999999999999e+01
0.0000000000000000e+00 1.0859999999999999e+01
ITEM: ATOMS id type xs ys zs
1 1 0 0 0
5 1 0.125 0.125 0.125
9 1 0.5 0 0
13 1 0.625 0.125 0.125
4 1 0.25 0.25 0
8 1 0.375969 0.373018 0.121485
12 1 0.75 0.25 0
14 1 0.875 0.375 0.125
3 1 0.25 0 0.25
7 1 0.37408 0.115968 0.389086
11 1 0.75 0 0.25
15 1 0.875 0.125 0.375
2 1 0 0.25 0.25
6 1 0.119111 0.371849 0.369127
10 1 0.486648 0.244112 0.255097
16 1 0 0 0.5
20 1 0.125 0.125 0.625
24 1 0.505406 -0.00951845 0.504165
28 1 0.630691 0.122572 0.601985
19 1 0.240997 0.246677 0.483
23 1 0.865627 0.379655 0.623472
27 1 0.76257 0.250122 0.500926
18 1 0.25 0 0.75
22 1 0.375 0.125 0.875
26 1 0.75 0 0.75
30 1 0.875 0.125 0.875
17 1 0 0.25 0.75
21 1 0.125 0.375 0.875
25 1 0.496224 0.249662 0.755575
29 1 0.628254 0.380212 0.875977
31 1 0 0.5 0
35 1 0.125 0.625 0.125
39 1 0.51168 0.499789 0.000473255
43 1 0.626143 0.618272 0.122881
34 1 0.25 0.75 0
38 1 0.375 0.875 0.125
42 1 0.75 0.75 0
46 1 0.875 0.875 0.125
33 1 0.239954 0.508324 0.250467
37 1 0.379164 0.628956 0.385374
41 1 0.76273 0.502681 0.245231
45 1 0.887284 0.615287 0.375497
32 1 0 0.75 0.25
36 1 0.125 0.875 0.375
40 1 0.504479 0.746683 0.241167
44 1 0.615628 0.879159 0.375827
47 1 -0.00708382 0.494631 0.500592
51 1 0.131055 0.627252 0.634936
55 1 0.498453 0.491383 0.50724
50 1 0.256706 0.756851 0.511414
54 1 0.376793 0.883118 0.636762
58 1 0.741436 0.752536 0.494122
59 1 0.875 0.875 0.625
49 1 0.243646 0.496829 0.752099
53 1 0.376202 0.630257 0.871592
57 1 0.746443 0.511132 0.739814
61 1 0.875 0.625 0.875
48 1 0 0.75 0.75
52 1 0.125 0.875 0.875
56 1 0.508302 0.752742 0.750965
60 1 0.625 0.875 0.875
ITEM: TIMESTEP
300
ITEM: NUMBER OF ATOMS
61
ITEM: BOX BOUNDS pp pp pp
0.0000000000000000e+00 1.0859999999999999e+01
0.0000000000000000e+00 1.0859999999999999e+01
0.0000000000000000e+00 1.0859999999999999e+01
ITEM: ATOMS id type xs ys zs
1 1 0 0 0
5 1 0.125 0.125 0.125
9 1 0.5 0 0
13 1 0.625 0.125 0.125
4 1 0.25 0.25 0
8 1 0.374905 0.376351 0.123491
12 1 0.75 0.25 0
14 1 0.875 0.375 0.125
3 1 0.25 0 0.25
7 1 0.374416 0.11124 0.389168
11 1 0.75 0 0.25
15 1 0.875 0.125 0.375
2 1 0 0.25 0.25
6 1 0.115652 0.375914 0.367503
10 1 0.483178 0.239257 0.255137
16 1 0 0 0.5
20 1 0.125 0.125 0.625
24 1 0.499096 -0.00816089 0.507323
28 1 0.632082 0.124987 0.604703
19 1 0.235966 0.243174 0.482586
23 1 0.867018 0.380998 0.626655
27 1 0.763871 0.249141 0.496834
18 1 0.25 0 0.75
22 1 0.375 0.125 0.875
26 1 0.75 0 0.75
30 1 0.875 0.125 0.875
17 1 0 0.25 0.75
21 1 0.125 0.375 0.875
25 1 0.501489 0.248531 0.753838
29 1 0.63127 0.380453 0.871007
31 1 0 0.5 0
35 1 0.125 0.625 0.125
39 1 0.506389 0.498801 -0.00194134
43 1 0.633997 0.61957 0.124639
34 1 0.25 0.75 0
38 1 0.375 0.875 0.125
42 1 0.75 0.75 0
46 1 0.875 0.875 0.125
33 1 0.244036 0.506848 0.253359
37 1 0.380933 0.628957 0.387321
41 1 0.765571 0.50451 0.243685
45 1 0.881728 0.621107 0.372434
32 1 0 0.75 0.25
36 1 0.125 0.875 0.375
40 1 0.50212 0.746303 0.242909
44 1 0.619189 0.873086 0.368188
47 1 0.00123791 0.490683 0.506775
51 1 0.128957 0.627258 0.632305
55 1 0.496731 0.488548 0.509675
50 1 0.257373 0.759273 0.51509
54 1 0.382513 0.880446 0.638846
58 1 0.743638 0.751979 0.491549
59 1 0.875 0.875 0.625
49 1 0.246627 0.497596 0.75547
53 1 0.37862 0.627646 0.870994
57 1 0.743521 0.514461 0.739508
61 1 0.875 0.625 0.875
48 1 0 0.75 0.75
52 1 0.125 0.875 0.875
56 1 0.507881 0.753976 0.750662
60 1 0.625 0.875 0.875
ITEM: TIMESTEP
400
ITEM: NUMBER OF ATOMS
61
ITEM: BOX BOUNDS pp pp pp
0.0000000000000000e+00 1.0859999999999999e+01
0.0000000000000000e+00 1.0859999999999999e+01
0.0000000000000000e+00 1.0859999999999999e+01
ITEM: ATOMS id type xs ys zs
1 1 0 0 0
5 1 0.125 0.125 0.125
9 1 0.5 0 0
13 1 0.625 0.125 0.125
4 1 0.25 0.25 0
8 1 0.372682 0.380246 0.127627
12 1 0.75 0.25 0
14 1 0.875 0.375 0.125
3 1 0.25 0 0.25
7 1 0.372329 0.109097 0.384806
11 1 0.75 0 0.25
15 1 0.875 0.125 0.375
2 1 0 0.25 0.25
6 1 0.115177 0.381399 0.368199
10 1 0.482672 0.234437 0.252369
16 1 0 0 0.5
20 1 0.125 0.125 0.625
24 1 0.495183 -0.00587466 0.507369
28 1 0.631533 0.127881 0.615403
19 1 0.231704 0.238991 0.485247
23 1 0.871232 0.379888 0.630925
27 1 0.761225 0.250017 0.492915
18 1 0.25 0 0.75
22 1 0.375 0.125 0.875
26 1 0.75 0 0.75
30 1 0.875 0.125 0.875
17 1 0 0.25 0.75
21 1 0.125 0.375 0.875
25 1 0.510284 0.246625 0.749532
29 1 0.632944 0.379242 0.865202
31 1 0 0.5 0
35 1 0.125 0.625 0.125
39 1 0.499425 0.498474 -0.00399662
43 1 0.639679 0.622809 0.125599
34 1 0.25 0.75 0
38 1 0.375 0.875 0.125
42 1 0.75 0.75 0
46 1 0.875 0.875 0.125
33 1 0.252308 0.503516 0.256467
37 1 0.3812 0.627631 0.387864
41 1 0.765019 0.505657 0.243505
45 1 0.8749 0.628827 0.372601
32 1 0 0.75 0.25
36 1 0.125 0.875 0.375
40 1 0.498692 0.744953 0.246753
44 1 0.624063 0.867384 0.36168
47 1 0.0104468 0.492065 0.512061
51 1 0.126151 0.625727 0.627611
55 1 0.494539 0.486932 0.511209
50 1 0.256174 0.759498 0.515296
54 1 0.387099 0.875493 0.639075
58 1 0.749804 0.750545 0.490053
59 1 0.875 0.875 0.625
49 1 0.251923 0.500646 0.757885
53 1 0.381311 0.623664 0.872107
57 1 0.741356 0.51623 0.741802
61 1 0.875 0.625 0.875
48 1 0 0.75 0.75
52 1 0.125 0.875 0.875
56 1 0.505821 0.752873 0.751112
60 1 0.625 0.875 0.875
ITEM: TIMESTEP
500
ITEM: NUMBER OF ATOMS
61
ITEM: BOX BOUNDS pp pp pp
0.0000000000000000e+00 1.0859999999999999e+01
0.0000000000000000e+00 1.0859999999999999e+01
0.0000000000000000e+00 1.0859999999999999e+01
ITEM: ATOMS id type xs ys zs
1 1 0 0 0
5 1 0.125 0.125 0.125
9 1 0.5 0 0
13 1 0.625 0.125 0.125
4 1 0.25 0.25 0
8 1 0.370969 0.381405 0.131732
12 1 0.75 0.25 0
14 1 0.875 0.375 0.125
3 1 0.25 0 0.25
7 1 0.367524 0.111266 0.378256
11 1 0.75 0 0.25
15 1 0.875 0.125 0.375
2 1 0 0.25 0.25
6 1 0.11918 0.385069 0.370591
10 1 0.484487 0.231205 0.246703
16 1 0 0 0.5
20 1 0.125 0.125 0.625
24 1 0.49809 -0.00394207 0.504539
28 1 0.630194 0.128985 0.62782
19 1 0.229507 0.235667 0.487604
23 1 0.875817 0.377332 0.633613
27 1 0.755229 0.253295 0.492404
18 1 0.25 0 0.75
22 1 0.375 0.125 0.875
26 1 0.75 0 0.75
30 1 0.875 0.125 0.875
17 1 0 0.25 0.75
21 1 0.125 0.375 0.875
25 1 0.518117 0.244511 0.745414
29 1 0.631968 0.377301 0.862251
31 1 0 0.5 0
35 1 0.125 0.625 0.125
39 1 0.496356 0.498191 -0.00382655
43 1 0.638358 0.626118 0.124956
34 1 0.25 0.75 0
38 1 0.375 0.875 0.125
42 1 0.75 0.75 0
46 1 0.875 0.875 0.125
33 1 0.260148 0.501788 0.258709
37 1 0.379606 0.6251 0.388256
41 1 0.761851 0.505894 0.245354
45 1 0.872685 0.633089 0.375701
32 1 0 0.75 0.25
36 1 0.125 0.875 0.375
40 1 0.495842 0.742053 0.24964
44 1 0.6284 0.864973 0.360716
47 1 0.0137235 0.498146 0.514072
51 1 0.126625 0.624502 0.625736
55 1 0.492092 0.4865 0.511934
50 1 0.253574 0.756967 0.511383
54 1 0.386346 0.871962 0.636974
58 1 0.756274 0.750681 0.490924
59 1 0.875 0.875 0.625
49 1 0.255953 0.504591 0.757564
53 1 0.382608 0.621942 0.874841
57 1 0.741779 0.516305 0.744985
61 1 0.875 0.625 0.875
48 1 0 0.75 0.75
52 1 0.125 0.875 0.875
56 1 0.504828 0.748186 0.753857
60 1 0.625 0.875 0.875
ITEM: TIMESTEP
600
ITEM: NUMBER OF ATOMS
61
ITEM: BOX BOUNDS pp pp pp
0.0000000000000000e+00 1.0859999999999999e+01
0.0000000000000000e+00 1.0859999999999999e+01
0.0000000000000000e+00 1.0859999999999999e+01
ITEM: ATOMS id type xs ys zs
1 1 0 0 0
5 1 0.125 0.125 0.125
9 1 0.5 0 0
13 1 0.625 0.125 0.125
4 1 0.25 0.25 0
8 1 0.372266 0.377986 0.132822
12 1 0.75 0.25 0
14 1 0.875 0.375 0.125
3 1 0.25 0 0.25
7 1 0.363869 0.117072 0.373003
11 1 0.75 0 0.25
15 1 0.875 0.125 0.375
2 1 0 0.25 0.25
6 1 0.125999 0.38548 0.374101
10 1 0.486708 0.230942 0.239866
16 1 0 0 0.5
20 1 0.125 0.125 0.625
24 1 0.505414 -0.00271779 0.500231
28 1 0.631787 0.125631 0.633077
19 1 0.230425 0.235158 0.487497
23 1 0.878432 0.375921 0.632952
27 1 0.748147 0.257177 0.49621
18 1 0.25 0 0.75
22 1 0.375 0.125 0.875
26 1 0.75 0 0.75
30 1 0.875 0.125 0.875
17 1 0 0.25 0.75
21 1 0.125 0.375 0.875
25 1 0.518411 0.244806 0.746128
29 1 0.629121 0.37567 0.864208
31 1 0 0.5 0
35 1 0.125 0.625 0.125
39 1 0.498996 0.496867 -0.000606799
43 1 0.630015 0.627307 0.123884
34 1 0.25 0.75 0
38 1 0.375 0.875 0.125
42 1 0.75 0.75 0
46 1 0.875 0.875 0.125
33 1 0.26304 0.503328 0.259925
37 1 0.377265 0.622078 0.389236
41 1 0.757094 0.505885 0.248858
45 1 0.877938 0.630202 0.378877
32 1 0 0.75 0.25
36 1 0.125 0.875 0.375
40 1 0.494654 0.739359 0.250482
44 1 0.631125 0.865702 0.365798
47 1 0.00808087 0.505344 0.510656
51 1 0.131791 0.626188 0.629337
55 1 0.489654 0.48699 0.512195
50 1 0.250501 0.752327 0.504488
54 1 0.381189 0.870777 0.632213
58 1 0.759243 0.754284 0.495331
59 1 0.875 0.875 0.625
49 1 0.256693 0.507134 0.754781
53 1 0.381181 0.624037 0.878797
57 1 0.745442 0.513986 0.747753
61 1 0.875 0.625 0.875
48 1 0 0.75 0.75
52 1 0.125 0.875 0.875
56 1 0.505343 0.741951 0.757721
60 1 0.625 0.875 0.875
ITEM: TIMESTEP
700
ITEM: NUMBER OF ATOMS
61
ITEM: BOX BOUNDS pp pp pp
0.0000000000000000e+00 1.0859999999999999e+01
0.0000000000000000e+00 1.0859999999999999e+01
0.0000000000000000e+00 1.0859999999999999e+01
ITEM: ATOMS id type xs ys zs
1 1 0 0 0
5 1 0.125 0.125 0.125
9 1 0.5 0 0
13 1 0.625 0.125 0.125
4 1 0.25 0.25 0
8 1 0.376126 0.372301 0.129767
12 1 0.75 0.25 0
14 1 0.875 0.375 0.125
3 1 0.25 0 0.25
7 1 0.365402 0.123805 0.370493
11 1 0.75 0 0.25
15 1 0.875 0.125 0.375
2 1 0 0.25 0.25
6 1 0.131506 0.383697 0.378202
10 1 0.487835 0.233898 0.235039
16 1 0 0 0.5
20 1 0.125 0.125 0.625
24 1 0.512418 -0.00199823 0.495733
28 1 0.635048 0.11993 0.628862
19 1 0.23452 0.238038 0.485941
23 1 0.877842 0.377269 0.62871
27 1 0.74287 0.259373 0.502893
18 1 0.25 0 0.75
22 1 0.375 0.125 0.875
26 1 0.75 0 0.75
30 1 0.875 0.125 0.875
17 1 0 0.25 0.75
21 1 0.125 0.375 0.875
25 1 0.51017 0.246641 0.751467
29 1 0.626492 0.375601 0.870884
31 1 0 0.5 0
35 1 0.125 0.625 0.125
39 1 0.504621 0.494782 0.00418063
43 1 0.618952 0.625251 0.123433
34 1 0.25 0.75 0
38 1 0.375 0.875 0.125
42 1 0.75 0.75 0
46 1 0.875 0.875 0.125
33 1 0.259905 0.505939 0.258456
37 1 0.375935 0.619815 0.389935
41 1 0.751946 0.505933 0.252587
45 1 0.885646 0.623827 0.381167
32 1 0 0.75 0.25
36 1 0.125 0.875 0.375
40 1 0.495421 0.739334 0.25088
44 1 0.631177 0.868605 0.374156
47 1 -0.000956222 0.51096 0.504489
51 1 0.136849 0.629983 0.634606
55 1 0.487613 0.487905 0.512635
50 1 0.248305 0.747614 0.497503
54 1 0.375678 0.870547 0.625805
58 1 0.759454 0.757979 0.500815
59 1 0.875 0.875 0.625
49 1 0.255258 0.506882 0.752271
53 1 0.377533 0.626976 0.883705
57 1 0.751239 0.508253 0.749705
61 1 0.875 0.625 0.875
48 1 0 0.75 0.75
52 1 0.125 0.875 0.875
56 1 0.505874 0.737928 0.759709
60 1 0.625 0.875 0.875
ITEM: TIMESTEP
800
ITEM: NUMBER OF ATOMS
61
ITEM: BOX BOUNDS pp pp pp
0.0000000000000000e+00 1.0859999999999999e+01
0.0000000000000000e+00 1.0859999999999999e+01
0.0000000000000000e+00 1.0859999999999999e+01
ITEM: ATOMS id type xs ys zs
1 1 0 0 0
5 1 0.125 0.125 0.125
9 1 0.5 0 0
13 1 0.625 0.125 0.125
4 1 0.25 0.25 0
8 1 0.378796 0.369045 0.123534
12 1 0.75 0.25 0
14 1 0.875 0.375 0.125
3 1 0.25 0 0.25
7 1 0.372736 0.128063 0.3697
11 1 0.75 0 0.25
15 1 0.875 0.125 0.375
2 1 0 0.25 0.25
6 1 0.131805 0.382388 0.380705
10 1 0.489018 0.238673 0.234796
16 1 0 0 0.5
20 1 0.125 0.125 0.625
24 1 0.514595 -0.000859902 0.49303
28 1 0.634473 0.11714 0.620638
19 1 0.241229 0.24263 0.486674
23 1 0.87492 0.380504 0.622689
27 1 0.74128 0.259214 0.509387
18 1 0.25 0 0.75
22 1 0.375 0.125 0.875
26 1 0.75 0 0.75
30 1 0.875 0.125 0.875
17 1 0 0.25 0.75
21 1 0.125 0.375 0.875
25 1 0.499329 0.247081 0.756829
29 1 0.625713 0.376684 0.879318
31 1 0 0.5 0
35 1 0.125 0.625 0.125
39 1 0.507375 0.492452 0.00759977
43 1 0.612085 0.622011 0.124633
34 1 0.25 0.75 0
38 1 0.375 0.875 0.125
42 1 0.75 0.75 0
46 1 0.875 0.875 0.125
33 1 0.253493 0.506301 0.253144
37 1 0.37631 0.618814 0.387888
41 1 0.747753 0.505587 0.255231
45 1 0.886575 0.621938 0.379736
32 1 0 0.75 0.25
36 1 0.125 0.875 0.375
40 1 0.497002 0.743056 0.253176
44 1 0.629575 0.871931 0.3808
47 1 -0.00371575 0.510898 0.502298
51 1 0.13699 0.634005 0.636661
55 1 0.486353 0.488667 0.513847
50 1 0.247487 0.745051 0.493108
54 1 0.372784 0.870347 0.619239
58 1 0.758717 0.757301 0.504132
59 1 0.875 0.875 0.625
49 1 0.254003 0.50381 0.75296
53 1 0.374233 0.626547 0.88797
57 1 0.756813 0.499293 0.751491
61 1 0.875 0.625 0.875
48 1 0 0.75 0.75
52 1 0.125 0.875 0.875
56 1 0.504901 0.737947 0.758567
60 1 0.625 0.875 0.875
ITEM: TIMESTEP
900
ITEM: NUMBER OF ATOMS
61
ITEM: BOX BOUNDS pp pp pp
0.0000000000000000e+00 1.0859999999999999e+01
0.0000000000000000e+00 1.0859999999999999e+01
0.0000000000000000e+00 1.0859999999999999e+01
ITEM: ATOMS id type xs ys zs
1 1 0 0 0
5 1 0.125 0.125 0.125
9 1 0.5 0 0
13 1 0.625 0.125 0.125
4 1 0.25 0.25 0
8 1 0.377218 0.369981 0.11708
12 1 0.75 0.25 0
14 1 0.875 0.375 0.125
3 1 0.25 0 0.25
7 1 0.382609 0.127957 0.370066
11 1 0.75 0 0.25
15 1 0.875 0.125 0.375
2 1 0 0.25 0.25
6 1 0.1266 0.38223 0.379797
10 1 0.492636 0.244421 0.238631
16 1 0 0 0.5
20 1 0.125 0.125 0.625
24 1 0.50895 0.00118937 0.493098
28 1 0.62884 0.11851 0.615443
19 1 0.249743 0.247157 0.491513
23 1 0.872687 0.382573 0.618232
27 1 0.743774 0.257244 0.511409
18 1 0.25 0 0.75
22 1 0.375 0.125 0.875
26 1 0.75 0 0.75
30 1 0.875 0.125 0.875
17 1 0 0.25 0.75
21 1 0.125 0.375 0.875
25 1 0.491962 0.247155 0.759415
29 1 0.626665 0.376331 0.884809
31 1 0 0.5 0
35 1 0.125 0.625 0.125
39 1 0.503774 0.491102 0.00772286
43 1 0.613578 0.620985 0.128596
34 1 0.25 0.75 0
38 1 0.375 0.875 0.125
42 1 0.75 0.75 0
46 1 0.875 0.875 0.125
33 1 0.247841 0.503079 0.245926
37 1 0.377229 0.618422 0.381603
41 1 0.745242 0.504265 0.255945
45 1 0.878457 0.62661 0.374276
32 1 0 0.75 0.25
36 1 0.125 0.875 0.375
40 1 0.498303 0.749417 0.257618
44 1 0.628883 0.873445 0.381992
47 1 0.00237843 0.505469 0.505287
51 1 0.132646 0.635301 0.634628
55 1 0.485858 0.489159 0.515693
50 1 0.247642 0.745369 0.492094
54 1 0.373492 0.8704 0.61435
58 1 0.757165 0.751716 0.504175
59 1 0.875 0.875 0.625
49 1 0.253277 0.499855 0.756594
53 1 0.373873 0.621628 0.88912
57 1 0.759752 0.489823 0.754932
61 1 0.875 0.625 0.875
48 1 0 0.75 0.75
52 1 0.125 0.875 0.875
56 1 0.501245 0.74163 0.755099
60 1 0.625 0.875 0.875
ITEM: TIMESTEP
1000
ITEM: NUMBER OF ATOMS
61
ITEM: BOX BOUNDS pp pp pp
0.0000000000000000e+00 1.0859999999999999e+01
0.0000000000000000e+00 1.0859999999999999e+01
0.0000000000000000e+00 1.0859999999999999e+01
ITEM: ATOMS id type xs ys zs
1 1 0 0 0
5 1 0.125 0.125 0.125
9 1 0.5 0 0
13 1 0.625 0.125 0.125
4 1 0.25 0.25 0
8 1 0.371668 0.37268 0.11524
12 1 0.75 0.25 0
14 1 0.875 0.375 0.125
3 1 0.25 0 0.25
7 1 0.389362 0.125092 0.371432
11 1 0.75 0 0.25
15 1 0.875 0.125 0.375
2 1 0 0.25 0.25
6 1 0.120455 0.380396 0.375979
10 1 0.499243 0.251648 0.243459
16 1 0 0 0.5
20 1 0.125 0.125 0.625
24 1 0.498321 0.00199433 0.494655
28 1 0.620186 0.123542 0.617742
19 1 0.258117 0.251267 0.498375
23 1 0.873571 0.381009 0.617504
27 1 0.749244 0.25318 0.506625
18 1 0.25 0 0.75
22 1 0.375 0.125 0.875
26 1 0.75 0 0.75
30 1 0.875 0.125 0.875
17 1 0 0.25 0.75
21 1 0.125 0.375 0.875
25 1 0.49143 0.248735 0.75796
29 1 0.627164 0.373082 0.884886
31 1 0 0.5 0
35 1 0.125 0.625 0.125
39 1 0.497405 0.493444 0.00519296
43 1 0.6208 0.622811 0.133848
34 1 0.25 0.75 0
38 1 0.375 0.875 0.125
42 1 0.75 0.75 0
46 1 0.875 0.875 0.125
33 1 0.245317 0.496987 0.239857
37 1 0.376922 0.617621 0.372875
41 1 0.744743 0.501443 0.254437
45 1 0.868287 0.631685 0.370063
32 1 0 0.75 0.25
36 1 0.125 0.875 0.375
40 1 0.499443 0.755934 0.2616
44 1 0.629537 0.873626 0.379089
47 1 0.0104238 0.501541 0.507736
51 1 0.127173 0.631291 0.630118
55 1 0.485571 0.489994 0.517094
50 1 0.24877 0.747449 0.493527
54 1 0.376665 0.871352 0.612921
58 1 0.754186 0.744629 0.502218
59 1 0.875 0.875 0.625
49 1 0.25208 0.497392 0.760299
53 1 0.376299 0.615221 0.885917
57 1 0.759653 0.483012 0.761146
61 1 0.875 0.625 0.875
48 1 0 0.75 0.75
52 1 0.125 0.875 0.875
56 1 0.495112 0.747666 0.750907
60 1 0.625 0.875 0.875
ITEM: TIMESTEP
1100
ITEM: NUMBER OF ATOMS
61
ITEM: BOX BOUNDS pp pp pp
0.0000000000000000e+00 1.0859999999999999e+01
0.0000000000000000e+00 1.0859999999999999e+01
0.0000000000000000e+00 1.0859999999999999e+01
ITEM: ATOMS id type xs ys zs
1 1 0 0 0
5 1 0.125 0.125 0.125
9 1 0.5 0 0
13 1 0.625 0.125 0.125
4 1 0.25 0.25 0
8 1 0.365985 0.374588 0.119392
12 1 0.75 0.25 0
14 1 0.875 0.375 0.125
3 1 0.25 0 0.25
7 1 0.388535 0.124015 0.371702
11 1 0.75 0 0.25
15 1 0.875 0.125 0.375
2 1 0 0.25 0.25
6 1 0.119022 0.375176 0.371234
10 1 0.506907 0.259605 0.247449
16 1 0 0 0.5
20 1 0.125 0.125 0.625
24 1 0.491318 -0.000465831 0.497377
28 1 0.611638 0.130696 0.625523
19 1 0.264337 0.254539 0.50425
23 1 0.877208 0.376092 0.62041
27 1 0.755225 0.246875 0.497556
18 1 0.25 0 0.75
22 1 0.375 0.125 0.875
26 1 0.75 0 0.75
30 1 0.875 0.125 0.875
17 1 0 0.25 0.75
21 1 0.125 0.375 0.875
25 1 0.496547 0.251773 0.753563
29 1 0.624203 0.36819 0.881196
31 1 0 0.5 0
35 1 0.125 0.625 0.125
39 1 0.494748 0.49845 0.00276972
43 1 0.627852 0.626701 0.137097
34 1 0.25 0.75 0
38 1 0.375 0.875 0.125
42 1 0.75 0.75 0
46 1 0.875 0.875 0.125
33 1 0.245112 0.490886 0.23745
37 1 0.374842 0.615772 0.365374
41 1 0.74649 0.496808 0.251634
45 1 0.862521 0.631963 0.368417
32 1 0 0.75 0.25
36 1 0.125 0.875 0.375
40 1 0.500128 0.759813 0.261562
44 1 0.630522 0.874885 0.376853
47 1 0.0129944 0.501115 0.506178
51 1 0.124701 0.623957 0.625983
55 1 0.484743 0.491982 0.51688
50 1 0.250882 0.749075 0.495931
54 1 0.378181 0.873282 0.615656
58 1 0.748916 0.740739 0.501161
59 1 0.875 0.875 0.625
49 1 0.249725 0.497087 0.760947
53 1 0.378292 0.612868 0.87849
57 1 0.758728 0.479918 0.768026
61 1 0.875 0.625 0.875
48 1 0 0.75 0.75
52 1 0.125 0.875 0.875
56 1 0.488942 0.754239 0.748227
60 1 0.625 0.875 0.875
ITEM: TIMESTEP
1200
ITEM: NUMBER OF ATOMS
61
ITEM: BOX BOUNDS pp pp pp
0.0000000000000000e+00 1.0859999999999999e+01
0.0000000000000000e+00 1.0859999999999999e+01
0.0000000000000000e+00 1.0859999999999999e+01
ITEM: ATOMS id type xs ys zs
1 1 0 0 0
5 1 0.125 0.125 0.125
9 1 0.5 0 0
13 1 0.625 0.125 0.125
4 1 0.25 0.25 0
8 1 0.365714 0.374444 0.125206
12 1 0.75 0.25 0
14 1 0.875 0.375 0.125
3 1 0.25 0 0.25
7 1 0.38135 0.126918 0.37025
11 1 0.75 0 0.25
15 1 0.875 0.125 0.375
2 1 0 0.25 0.25
6 1 0.123899 0.368652 0.368753
10 1 0.512957 0.266345 0.250385
16 1 0 0 0.5
20 1 0.125 0.125 0.625
24 1 0.492616 -0.00366996 0.500661
28 1 0.607905 0.135256 0.631523
19 1 0.267125 0.256174 0.507519
23 1 0.881366 0.36967 0.624516
27 1 0.758488 0.241342 0.490992
18 1 0.25 0 0.75
22 1 0.375 0.125 0.875
26 1 0.75 0 0.75
30 1 0.875 0.125 0.875
17 1 0 0.25 0.75
21 1 0.125 0.375 0.875
25 1 0.501149 0.255674 0.749666
29 1 0.617743 0.364538 0.8778
31 1 0 0.5 0
35 1 0.125 0.625 0.125
39 1 0.49771 0.502404 0.0027918
43 1 0.63129 0.63159 0.136646
34 1 0.25 0.75 0
38 1 0.375 0.875 0.125
42 1 0.75 0.75 0
46 1 0.875 0.875 0.125
33 1 0.244027 0.48855 0.240401
37 1 0.37213 0.613579 0.361614
41 1 0.749596 0.491119 0.248877
45 1 0.863676 0.626486 0.369087
32 1 0 0.75 0.25
36 1 0.125 0.875 0.375
40 1 0.499933 0.759481 0.256805
44 1 0.630634 0.877749 0.377975
47 1 0.00652565 0.501256 0.498696
51 1 0.127335 0.618329 0.624873
55 1 0.482854 0.4955 0.514553
50 1 0.253223 0.748437 0.497905
54 1 0.373871 0.875869 0.62147
58 1 0.742181 0.741899 0.502321
59 1 0.875 0.875 0.625
49 1 0.246267 0.498089 0.756982
53 1 0.377692 0.617569 0.869041
57 1 0.759371 0.479508 0.77211
61 1 0.875 0.625 0.875
48 1 0 0.75 0.75
52 1 0.125 0.875 0.875
56 1 0.485967 0.759317 0.749217
60 1 0.625 0.875 0.875
ITEM: TIMESTEP
1300
ITEM: NUMBER OF ATOMS
61
ITEM: BOX BOUNDS pp pp pp
0.0000000000000000e+00 1.0859999999999999e+01
0.0000000000000000e+00 1.0859999999999999e+01
0.0000000000000000e+00 1.0859999999999999e+01
ITEM: ATOMS id type xs ys zs
1 1 0 0 0
5 1 0.125 0.125 0.125
9 1 0.5 0 0
13 1 0.625 0.125 0.125
4 1 0.25 0.25 0
8 1 0.372079 0.372903 0.129008
12 1 0.75 0.25 0
14 1 0.875 0.375 0.125
3 1 0.25 0 0.25
7 1 0.373649 0.132257 0.369144
11 1 0.75 0 0.25
15 1 0.875 0.125 0.375
2 1 0 0.25 0.25
6 1 0.131962 0.363503 0.371181
10 1 0.51609 0.269902 0.252384
16 1 0 0 0.5
20 1 0.125 0.125 0.625
24 1 0.498444 -0.0034784 0.503178
28 1 0.612973 0.13308 0.630267
19 1 0.265641 0.255664 0.508308
23 1 0.88289 0.364543 0.626341
27 1 0.756466 0.240111 0.49238
18 1 0.25 0 0.75
22 1 0.375 0.125 0.875
26 1 0.75 0 0.75
30 1 0.875 0.125 0.875
17 1 0 0.25 0.75
21 1 0.125 0.375 0.875
25 1 0.498207 0.259654 0.748276
29 1 0.612386 0.365536 0.878478
31 1 0 0.5 0
35 1 0.125 0.625 0.125
39 1 0.502799 0.505002 0.00430088
43 1 0.631479 0.634727 0.133079
34 1 0.25 0.75 0
38 1 0.375 0.875 0.125
42 1 0.75 0.75 0
46 1 0.875 0.875 0.125
33 1 0.241423 0.490901 0.246907
37 1 0.370458 0.61309 0.362345
41 1 0.751721 0.487146 0.24706
45 1 0.868844 0.619 0.372107
32 1 0 0.75 0.25
36 1 0.125 0.875 0.375
40 1 0.499592 0.755561 0.250249
44 1 0.628118 0.880327 0.381072
47 1 -0.00424912 0.499393 0.488769
51 1 0.130872 0.616759 0.62455
55 1 0.479968 0.500245 0.510424
50 1 0.254464 0.745469 0.498755
54 1 0.365527 0.878646 0.627423
58 1 0.737388 0.745992 0.504158
59 1 0.875 0.875 0.625
49 1 0.243454 0.498966 0.749864
53 1 0.374996 0.626232 0.862283
57 1 0.761604 0.47936 0.772095
61 1 0.875 0.625 0.875
48 1 0 0.75 0.75
52 1 0.125 0.875 0.875
56 1 0.48763 0.762426 0.753212
60 1 0.625 0.875 0.875
ITEM: TIMESTEP
1400
ITEM: NUMBER OF ATOMS
61
ITEM: BOX BOUNDS pp pp pp
0.0000000000000000e+00 1.0859999999999999e+01
0.0000000000000000e+00 1.0859999999999999e+01
0.0000000000000000e+00 1.0859999999999999e+01
ITEM: ATOMS id type xs ys zs
1 1 0 0 0
5 1 0.125 0.125 0.125
9 1 0.5 0 0
13 1 0.625 0.125 0.125
4 1 0.25 0.25 0
8 1 0.380842 0.373076 0.130477
12 1 0.75 0.25 0
14 1 0.875 0.375 0.125
3 1 0.25 0 0.25
7 1 0.370444 0.137845 0.36927
11 1 0.75 0 0.25
15 1 0.875 0.125 0.375
2 1 0 0.25 0.25
6 1 0.137776 0.360868 0.37728
10 1 0.516612 0.268708 0.25395
16 1 0 0 0.5
20 1 0.125 0.125 0.625
24 1 0.501968 0.00127188 0.505269
28 1 0.624022 0.126945 0.624765
19 1 0.260239 0.25303 0.508552
23 1 0.879578 0.363297 0.624147
27 1 0.750463 0.243056 0.500863
18 1 0.25 0 0.75
22 1 0.375 0.125 0.875
26 1 0.75 0 0.75
30 1 0.875 0.125 0.875
17 1 0 0.25 0.75
21 1 0.125 0.375 0.875
25 1 0.489184 0.260652 0.74722
29 1 0.611777 0.371444 0.883011
31 1 0 0.5 0
35 1 0.125 0.625 0.125
39 1 0.505485 0.507759 0.00557584
43 1 0.630443 0.633332 0.127797
34 1 0.25 0.75 0
38 1 0.375 0.875 0.125
42 1 0.75 0.75 0
46 1 0.875 0.875 0.125
33 1 0.240601 0.495331 0.252355
37 1 0.370504 0.616435 0.366293
41 1 0.751072 0.487721 0.246839
45 1 0.872426 0.614695 0.374669
32 1 0 0.75 0.25
36 1 0.125 0.875 0.375
40 1 0.499646 0.750152 0.24583
44 1 0.622944 0.880504 0.38251
47 1 -0.0109557 0.493299 0.483215
51 1 0.129115 0.619229 0.621124
55 1 0.477039 0.505114 0.505823
50 1 0.25368 0.74195 0.498566
54 1 0.360346 0.879775 0.630035
58 1 0.737242 0.750179 0.505576
59 1 0.875 0.875 0.625
49 1 0.244007 0.498385 0.743393
53 1 0.370891 0.63332 0.861688
57 1 0.764029 0.477859 0.768677
61 1 0.875 0.625 0.875
48 1 0 0.75 0.75
52 1 0.125 0.875 0.875
56 1 0.492367 0.765066 0.756215
60 1 0.625 0.875 0.875
ITEM: TIMESTEP
1500
ITEM: NUMBER OF ATOMS
61
ITEM: BOX BOUNDS pp pp pp
0.0000000000000000e+00 1.0859999999999999e+01
0.0000000000000000e+00 1.0859999999999999e+01
0.0000000000000000e+00 1.0859999999999999e+01
ITEM: ATOMS id type xs ys zs
1 1 0 0 0
5 1 0.125 0.125 0.125
9 1 0.5 0 0
13 1 0.625 0.125 0.125
4 1 0.25 0.25 0
8 1 0.387565 0.376716 0.129937
12 1 0.75 0.25 0
14 1 0.875 0.375 0.125
3 1 0.25 0 0.25
7 1 0.372701 0.141542 0.370345
11 1 0.75 0 0.25
15 1 0.875 0.125 0.375
2 1 0 0.25 0.25
6 1 0.137723 0.361906 0.382442
10 1 0.515385 0.262375 0.255714
16 1 0 0 0.5
20 1 0.125 0.125 0.625
24 1 0.499883 0.00824645 0.50606
28 1 0.633978 0.121309 0.621861
19 1 0.253402 0.248509 0.510585
23 1 0.873145 0.365753 0.619486
27 1 0.744818 0.247635 0.509676
18 1 0.25 0 0.75
22 1 0.375 0.125 0.875
26 1 0.75 0 0.75
30 1 0.875 0.125 0.875
17 1 0 0.25 0.75
21 1 0.125 0.375 0.875
25 1 0.481278 0.258178 0.74608
29 1 0.614809 0.378098 0.88651
31 1 0 0.5 0
35 1 0.125 0.625 0.125
39 1 0.503099 0.511431 0.00545838
43 1 0.629734 0.62743 0.122916
34 1 0.25 0.75 0
38 1 0.375 0.875 0.125
42 1 0.75 0.75 0
46 1 0.875 0.875 0.125
33 1 0.243781 0.499123 0.25474
37 1 0.3713 0.624035 0.370156
41 1 0.747954 0.49323 0.247786
45 1 0.870551 0.616927 0.373774
32 1 0 0.75 0.25
36 1 0.125 0.875 0.375
40 1 0.499725 0.745597 0.245438
44 1 0.617196 0.87793 0.380314
47 1 -0.00946804 0.48267 0.485856
51 1 0.121096 0.622647 0.615103
55 1 0.475815 0.50842 0.502857
50 1 0.250608 0.740902 0.497745
54 1 0.362662 0.878005 0.627622
58 1 0.741876 0.752969 0.50596
59 1 0.875 0.875 0.625
49 1 0.247596 0.497164 0.739511
53 1 0.367033 0.636002 0.866394
57 1 0.765456 0.475943 0.763903
61 1 0.875 0.625 0.875
48 1 0 0.75 0.75
52 1 0.125 0.875 0.875
56 1 0.4969 0.766833 0.755357
60 1 0.625 0.875 0.875
ITEM: TIMESTEP
1600
ITEM: NUMBER OF ATOMS
61
ITEM: BOX BOUNDS pp pp pp
0.0000000000000000e+00 1.0859999999999999e+01
0.0000000000000000e+00 1.0859999999999999e+01
0.0000000000000000e+00 1.0859999999999999e+01
ITEM: ATOMS id type xs ys zs
1 1 0 0 0
5 1 0.125 0.125 0.125
9 1 0.5 0 0
13 1 0.625 0.125 0.125
4 1 0.25 0.25 0
8 1 0.389898 0.382055 0.128547
12 1 0.75 0.25 0
14 1 0.875 0.375 0.125
3 1 0.25 0 0.25
7 1 0.377626 0.141365 0.3728
11 1 0.75 0 0.25
15 1 0.875 0.125 0.375
2 1 0 0.25 0.25
6 1 0.132631 0.366231 0.383119
10 1 0.512907 0.2534 0.256762
16 1 0 0 0.5
20 1 0.125 0.125 0.625
24 1 0.493165 0.0138432 0.503926
28 1 0.636337 0.118097 0.625495
19 1 0.248376 0.243775 0.513474
23 1 0.868541 0.368899 0.61651
27 1 0.74216 0.25182 0.511275
18 1 0.25 0 0.75
22 1 0.375 0.125 0.875
26 1 0.75 0 0.75
30 1 0.875 0.125 0.875
17 1 0 0.25 0.75
21 1 0.125 0.375 0.875
25 1 0.479578 0.253709 0.74494
29 1 0.618475 0.381633 0.885385
31 1 0 0.5 0
35 1 0.125 0.625 0.125
39 1 0.496232 0.515138 0.00249294
43 1 0.629465 0.620916 0.120778
34 1 0.25 0.75 0
38 1 0.375 0.875 0.125
42 1 0.75 0.75 0
46 1 0.875 0.875 0.125
33 1 0.250567 0.500992 0.254554
37 1 0.371461 0.632997 0.371879
41 1 0.744267 0.500948 0.248461
45 1 0.866907 0.622949 0.372286
32 1 0 0.75 0.25
36 1 0.125 0.875 0.375
40 1 0.499722 0.743602 0.247452
44 1 0.613086 0.874349 0.376017
47 1 -0.00424544 0.474663 0.493077
51 1 0.110523 0.623149 0.609968
55 1 0.477304 0.509344 0.502534
50 1 0.245688 0.744848 0.496755
54 1 0.370839 0.875115 0.62173
58 1 0.748996 0.754122 0.504046
59 1 0.875 0.875 0.625
49 1 0.251067 0.497621 0.737901
53 1 0.36635 0.634266 0.872287
57 1 0.765073 0.476406 0.760566
61 1 0.875 0.625 0.875
48 1 0 0.75 0.75
52 1 0.125 0.875 0.875
56 1 0.498504 0.765144 0.751332
60 1 0.625 0.875 0.875
ITEM: TIMESTEP
1700
ITEM: NUMBER OF ATOMS
61
ITEM: BOX BOUNDS pp pp pp
0.0000000000000000e+00 1.0859999999999999e+01