ITEM: TIMESTEP
0
ITEM: NUMBER OF ATOMS
61
ITEM: BOX BOUNDS pp pp pp
0.0000000000000000e+00 1.0859999999999999e+01
0.0000000000000000e+00 1.0859999999999999e+01
0.0000000000000000e+00 1.0859999999999999e+01
ITEM: ATOMS id type xs ys zs
1 1 0 0 0
5 1 0.125 0.125 0.125
9 1 0.5 0 0
13 1 0.625 0.125 0.125
4 1 0.25 0.25 0
8 1 0.375 0.375 0.125
12 1 0.75 0.25 0
14 1 0.875 0.375 0.125
3 1 0.25 0 0.25
7 1 0.375 0.125 0.375
11 1 0.75 0 0.25
15 1 0.875 0.125 0.375
2 1 0 0.25 0.25
6 1 0.125 0.375 0.375
10 1 0.5 0.25 0.25
16 1 0 0 0.5
20 1 0.125 0.125 0.625
24 1 0.5 0 0.5
28 1 0.625 0.125 0.625
19 1 0.25 0.25 0.5
23 1 0.375 0.375 0.625
27 1 0.75 0.25 0.5
31 1 0.875 0.375 0.625
18 1 0.25 0 0.75
22 1 0.375 0.125 0.875
26 1 0.75 0 0.75
30 1 0.875 0.125 0.875
17 1 0 0.25 0.75
21 1 0.125 0.375 0.875
25 1 0.5 0.25 0.75
29 1 0.625 0.375 0.875
32 1 0 0.5 0
36 1 0.125 0.625 0.125
40 1 0.5 0.5 0
44 1 0.625 0.625 0.125
35 1 0.25 0.75 0
39 1 0.375 0.875 0.125
43 1 0.75 0.75 0
47 1 0.875 0.875 0.125
34 1 0.25 0.5 0.25
38 1 0.375 0.625 0.375
42 1 0.75 0.5 0.25
46 1 0.875 0.625 0.375
33 1 0 0.75 0.25
37 1 0.125 0.875 0.375
41 1 0.5 0.75 0.25
45 1 0.625 0.875 0.375
48 1 0 0.5 0.5
52 1 0.125 0.625 0.625
51 1 0.25 0.75 0.5
55 1 0.375 0.875 0.625
56 1 0.875 0.875 0.625
59 1 0.75 0.75 0.5
50 1 0.25 0.5 0.75
54 1 0.375 0.625 0.875
58 1 0.75 0.5 0.75
60 1 0.875 0.625 0.875
49 1 0 0.75 0.75
53 1 0.125 0.875 0.875
57 1 0.5 0.75 0.75
61 1 0.625 0.875 0.875
ITEM: TIMESTEP
100
ITEM: NUMBER OF ATOMS
61
ITEM: BOX BOUNDS pp pp pp
0.0000000000000000e+00 1.0859999999999999e+01
0.0000000000000000e+00 1.0859999999999999e+01
0.0000000000000000e+00 1.0859999999999999e+01
ITEM: ATOMS id type xs ys zs
1 1 0 0 0
5 1 0.125 0.125 0.125
9 1 0.5 0 0
13 1 0.625 0.125 0.125
4 1 0.25 0.25 0
8 1 0.375461 0.374005 0.121925
12 1 0.75 0.25 0
14 1 0.875 0.375 0.125
3 1 0.25 0 0.25
7 1 0.3732 0.121768 0.381965
11 1 0.75 0 0.25
15 1 0.875 0.125 0.375
2 1 0 0.25 0.25
6 1 0.122067 0.372456 0.371829
10 1 0.492529 0.24937 0.252418
16 1 0 0 0.5
20 1 0.125 0.125 0.625
24 1 0.505349 -0.00720837 0.49909
28 1 0.626831 0.122362 0.610066
19 1 0.245619 0.249763 0.489834
23 1 0.367487 0.375993 0.624484
27 1 0.756156 0.251217 0.501782
31 1 0.873142 0.384618 0.620809
18 1 0.25 0 0.75
22 1 0.375 0.125 0.875
26 1 0.75 0 0.75
30 1 0.875 0.125 0.875
17 1 0 0.25 0.75
21 1 0.125 0.375 0.875
25 1 0.494749 0.249768 0.752571
29 1 0.624256 0.376287 0.87768
32 1 0 0.5 0
36 1 0.125 0.625 0.125
40 1 0.50253 0.499672 -0.00364477
44 1 0.617243 0.63042 0.13123
35 1 0.25 0.75 0
39 1 0.375 0.875 0.125
43 1 0.75 0.75 0
47 1 0.875 0.875 0.125
34 1 0.247228 0.490375 0.243097
38 1 0.378291 0.630049 0.37399
42 1 0.753485 0.492779 0.256313
46 1 0.875671 0.625537 0.373665
33 1 0 0.75 0.25
37 1 0.125 0.875 0.375
41 1 0.504785 0.752346 0.249954
45 1 0.634143 0.867737 0.378509
48 1 0.00955819 0.502592 0.505763
52 1 0.12753 0.621693 0.621227
51 1 0.253237 0.750911 0.507496
55 1 0.373855 0.871334 0.629467
56 1 0.875 0.875 0.625
59 1 0.750661 0.753702 0.492729
50 1 0.25293 0.503231 0.756653
54 1 0.373265 0.630636 0.883063
58 1 0.743329 0.501819 0.750152
60 1 0.875 0.625 0.875
49 1 0 0.75 0.75
53 1 0.125 0.875 0.875
57 1 0.497119 0.754769 0.745928
61 1 0.625 0.875 0.875
ITEM: TIMESTEP
200
ITEM: NUMBER OF ATOMS
61
ITEM: BOX BOUNDS pp pp pp
0.0000000000000000e+00 1.0859999999999999e+01
0.0000000000000000e+00 1.0859999999999999e+01
0.0000000000000000e+00 1.0859999999999999e+01
ITEM: ATOMS id type xs ys zs
1 1 0 0 0
5 1 0.125 0.125 0.125
9 1 0.5 0 0
13 1 0.625 0.125 0.125
4 1 0.25 0.25 0
8 1 0.376638 0.372224 0.118476
12 1 0.75 0.25 0
14 1 0.875 0.375 0.125
3 1 0.25 0 0.25
7 1 0.372947 0.117642 0.385054
11 1 0.75 0 0.25
15 1 0.875 0.125 0.375
2 1 0 0.25 0.25
6 1 0.119868 0.371648 0.368699
10 1 0.486687 0.247074 0.253634
16 1 0 0 0.5
20 1 0.125 0.125 0.625
24 1 0.507867 -0.0150336 0.497809
28 1 0.628414 0.121664 0.60246
19 1 0.242132 0.249605 0.485769
23 1 0.360524 0.375454 0.624711
27 1 0.76197 0.252299 0.501465
31 1 0.871975 0.391985 0.620071
18 1 0.25 0 0.75
22 1 0.375 0.125 0.875
26 1 0.75 0 0.75
30 1 0.875 0.125 0.875
17 1 0 0.25 0.75
21 1 0.125 0.375 0.875
25 1 0.49237 0.250143 0.751442
29 1 0.623755 0.375991 0.877691
32 1 0 0.5 0
36 1 0.125 0.625 0.125
40 1 0.502711 0.501368 -0.00305207
44 1 0.616203 0.630048 0.134121
35 1 0.25 0.75 0
39 1 0.375 0.875 0.125
43 1 0.75 0.75 0
47 1 0.875 0.875 0.125
34 1 0.245977 0.485697 0.239505
38 1 0.378782 0.633491 0.371744
42 1 0.754811 0.488726 0.260538
46 1 0.877563 0.624613 0.374215
33 1 0 0.75 0.25
37 1 0.125 0.875 0.375
41 1 0.505883 0.756316 0.25261
45 1 0.637711 0.866396 0.37655
48 1 0.0141153 0.503382 0.505296
52 1 0.132372 0.621923 0.623729
51 1 0.255194 0.750668 0.510168
55 1 0.373391 0.87191 0.6317
56 1 0.875 0.875 0.625
59 1 0.756521 0.753295 0.490613
50 1 0.254162 0.50596 0.761466
54 1 0.375061 0.634482 0.886017
58 1 0.738817 0.504097 0.750643
60 1 0.875 0.625 0.875
49 1 0 0.75 0.75
53 1 0.125 0.875 0.875
57 1 0.495582 0.756587 0.746799
61 1 0.625 0.875 0.875
ITEM: TIMESTEP
300
ITEM: NUMBER OF ATOMS
61
ITEM: BOX BOUNDS pp pp pp
0.0000000000000000e+00 1.0859999999999999e+01
0.0000000000000000e+00 1.0859999999999999e+01
0.0000000000000000e+00 1.0859999999999999e+01
ITEM: ATOMS id type xs ys zs
1 1 0 0 0
5 1 0.125 0.125 0.125
9 1 0.5 0 0
13 1 0.625 0.125 0.125
4 1 0.25 0.25 0
8 1 0.378025 0.370027 0.115654
12 1 0.75 0.25 0
14 1 0.875 0.375 0.125
3 1 0.25 0 0.25
7 1 0.373902 0.112752 0.384181
11 1 0.75 0 0.25
15 1 0.875 0.125 0.375
2 1 0 0.25 0.25
6 1 0.119439 0.373084 0.366223
10 1 0.48401 0.242994 0.253127
16 1 0 0 0.5
20 1 0.125 0.125 0.625
24 1 0.506996 -0.021584 0.49663
28 1 0.629329 0.122957 0.603548
19 1 0.240334 0.24892 0.488843
23 1 0.354835 0.373399 0.625927
27 1 0.76627 0.253679 0.499408
31 1 0.872086 0.395913 0.623049
18 1 0.25 0 0.75
22 1 0.375 0.125 0.875
26 1 0.75 0 0.75
30 1 0.875 0.125 0.875
17 1 0 0.25 0.75
21 1 0.125 0.375 0.875
25 1 0.493512 0.250962 0.746083
29 1 0.622802 0.37426 0.875075
32 1 0 0.5 0
36 1 0.125 0.625 0.125
40 1 0.501018 0.504484 0.00169421
44 1 0.622561 0.624239 0.133891
35 1 0.25 0.75 0
39 1 0.375 0.875 0.125
43 1 0.75 0.75 0
47 1 0.875 0.875 0.125
34 1 0.246785 0.48738 0.239609
38 1 0.375667 0.634349 0.368688
42 1 0.753564 0.488581 0.262253
46 1 0.881454 0.621591 0.376141
33 1 0 0.75 0.25
37 1 0.125 0.875 0.375
41 1 0.503036 0.760289 0.255915
45 1 0.636449 0.87075 0.370281
48 1 0.0134875 0.503002 0.499431
52 1 0.13791 0.625471 0.631797
51 1 0.25554 0.749873 0.507008
55 1 0.373849 0.876371 0.630795
56 1 0.875 0.875 0.625
59 1 0.765927 0.749286 0.493914
50 1 0.253664 0.507554 0.764055
54 1 0.380496 0.635315 0.883034
58 1 0.737123 0.507294 0.751343
60 1 0.875 0.625 0.875
49 1 0 0.75 0.75
53 1 0.125 0.875 0.875
57 1 0.496337 0.75498 0.753023
61 1 0.625 0.875 0.875
ITEM: TIMESTEP
400
ITEM: NUMBER OF ATOMS
61
ITEM: BOX BOUNDS pp pp pp
0.0000000000000000e+00 1.0859999999999999e+01
0.0000000000000000e+00 1.0859999999999999e+01
0.0000000000000000e+00 1.0859999999999999e+01
ITEM: ATOMS id type xs ys zs
1 1 0 0 0
5 1 0.125 0.125 0.125
9 1 0.5 0 0
13 1 0.625 0.125 0.125
4 1 0.25 0.25 0
8 1 0.378434 0.368613 0.115855
12 1 0.75 0.25 0
14 1 0.875 0.375 0.125
3 1 0.25 0 0.25
7 1 0.374655 0.108924 0.381597
11 1 0.75 0 0.25
15 1 0.875 0.125 0.375
2 1 0 0.25 0.25
6 1 0.121899 0.375288 0.365543
10 1 0.485043 0.237845 0.250584
16 1 0 0 0.5
20 1 0.125 0.125 0.625
24 1 0.504571 -0.0229034 0.496095
28 1 0.629059 0.125258 0.610741
19 1 0.240746 0.247215 0.49567
23 1 0.351197 0.370671 0.62855
27 1 0.767581 0.255635 0.497859
31 1 0.874094 0.395776 0.627677
18 1 0.25 0 0.75
22 1 0.375 0.125 0.875
26 1 0.75 0 0.75
30 1 0.875 0.125 0.875
17 1 0 0.25 0.75
21 1 0.125 0.375 0.875
25 1 0.496853 0.251135 0.738318
29 1 0.620653 0.372924 0.871874
32 1 0 0.5 0
36 1 0.125 0.625 0.125
40 1 0.500269 0.506515 0.00675643
44 1 0.63208 0.617804 0.133685
35 1 0.25 0.75 0
39 1 0.375 0.875 0.125
43 1 0.75 0.75 0
47 1 0.875 0.875 0.125
34 1 0.250177 0.49403 0.242099
38 1 0.369754 0.632306 0.36557
42 1 0.751189 0.491682 0.261516
46 1 0.886381 0.617248 0.377202
33 1 0 0.75 0.25
37 1 0.125 0.875 0.375
41 1 0.498852 0.760377 0.255339
45 1 0.635606 0.874708 0.366504
48 1 0.0111272 0.503558 0.494395
52 1 0.139897 0.629898 0.639188
51 1 0.254773 0.750173 0.50076
55 1 0.375659 0.8793 0.628362
56 1 0.875 0.875 0.625
59 1 0.772291 0.74586 0.497992
50 1 0.253045 0.507409 0.764738
54 1 0.385641 0.632639 0.878352
58 1 0.737846 0.510881 0.752264
60 1 0.875 0.625 0.875
49 1 0 0.75 0.75
53 1 0.125 0.875 0.875
57 1 0.498856 0.753252 0.759886
61 1 0.625 0.875 0.875
ITEM: TIMESTEP
500
ITEM: NUMBER OF ATOMS
61
ITEM: BOX BOUNDS pp pp pp
0.0000000000000000e+00 1.0859999999999999e+01
0.0000000000000000e+00 1.0859999999999999e+01
0.0000000000000000e+00 1.0859999999999999e+01
ITEM: ATOMS id type xs ys zs
1 1 0 0 0
5 1 0.125 0.125 0.125
9 1 0.5 0 0
13 1 0.625 0.125 0.125
4 1 0.25 0.25 0
8 1 0.377431 0.368895 0.12057
12 1 0.75 0.25 0
14 1 0.875 0.375 0.125
3 1 0.25 0 0.25
7 1 0.37445 0.108418 0.379315
11 1 0.75 0 0.25
15 1 0.875 0.125 0.375
2 1 0 0.25 0.25
6 1 0.127203 0.376711 0.367505
10 1 0.489046 0.23283 0.246377
16 1 0 0 0.5
20 1 0.125 0.125 0.625
24 1 0.503348 -0.0168076 0.495965
28 1 0.628182 0.127385 0.619747
19 1 0.243178 0.244703 0.50142
23 1 0.350612 0.368137 0.632513
27 1 0.765133 0.257861 0.498696
31 1 0.878117 0.39197 0.631992
18 1 0.25 0 0.75
22 1 0.375 0.125 0.875
26 1 0.75 0 0.75
30 1 0.875 0.125 0.875
17 1 0 0.25 0.75
21 1 0.125 0.375 0.875
25 1 0.500159 0.250275 0.731836
29 1 0.618089 0.373333 0.869702
32 1 0 0.5 0
36 1 0.125 0.625 0.125
40 1 0.502219 0.505316 0.00932725
44 1 0.639612 0.615393 0.133764
35 1 0.25 0.75 0
39 1 0.375 0.875 0.125
43 1 0.75 0.75 0
47 1 0.875 0.875 0.125
34 1 0.254829 0.502192 0.244926
38 1 0.363941 0.62863 0.363218
42 1 0.750575 0.495455 0.259555
46 1 0.888916 0.614765 0.375065
33 1 0 0.75 0.25
37 1 0.125 0.875 0.375
41 1 0.496229 0.755315 0.250631
45 1 0.635851 0.87383 0.368432
48 1 0.010554 0.504064 0.494976
52 1 0.137437 0.633919 0.641367
51 1 0.252815 0.751925 0.494992
55 1 0.377899 0.876621 0.626758
56 1 0.875 0.875 0.625
59 1 0.772763 0.743942 0.499597
50 1 0.253183 0.505565 0.763684
54 1 0.386681 0.626783 0.877286
58 1 0.74011 0.513444 0.75319
60 1 0.875 0.625 0.875
49 1 0 0.75 0.75
53 1 0.125 0.875 0.875
57 1 0.502523 0.753987 0.761808
61 1 0.625 0.875 0.875
ITEM: TIMESTEP
600
ITEM: NUMBER OF ATOMS
61
ITEM: BOX BOUNDS pp pp pp
0.0000000000000000e+00 1.0859999999999999e+01
0.0000000000000000e+00 1.0859999999999999e+01
0.0000000000000000e+00 1.0859999999999999e+01
ITEM: ATOMS id type xs ys zs
1 1 0 0 0
5 1 0.125 0.125 0.125
9 1 0.5 0 0
13 1 0.625 0.125 0.125
4 1 0.25 0.25 0
8 1 0.375984 0.370973 0.1285
12 1 0.75 0.25 0
14 1 0.875 0.375 0.125
3 1 0.25 0 0.25
7 1 0.373698 0.112577 0.377932
11 1 0.75 0 0.25
15 1 0.875 0.125 0.375
2 1 0 0.25 0.25
6 1 0.133773 0.376872 0.371823
10 1 0.493536 0.229757 0.242322
16 1 0 0 0.5
20 1 0.125 0.125 0.625
24 1 0.504541 -0.0052094 0.497061
28 1 0.628716 0.127639 0.625441
19 1 0.247253 0.242327 0.502957
23 1 0.35346 0.365955 0.636574
27 1 0.759699 0.259399 0.502343
31 1 0.882647 0.386065 0.634554
18 1 0.25 0 0.75
22 1 0.375 0.125 0.875
26 1 0.75 0 0.75
30 1 0.875 0.125 0.875
17 1 0 0.25 0.75
21 1 0.125 0.375 0.875
25 1 0.501115 0.249825 0.73125
29 1 0.616804 0.375444 0.868911
32 1 0 0.5 0
36 1 0.125 0.625 0.125
40 1 0.5061 0.500216 0.00971806
44 1 0.641487 0.619151 0.132029
35 1 0.25 0.75 0
39 1 0.375 0.875 0.125
43 1 0.75 0.75 0
47 1 0.875 0.875 0.125
34 1 0.256492 0.506558 0.245418
38 1 0.362742 0.627176 0.363908
42 1 0.753849 0.496859 0.257989
46 1 0.887497 0.616078 0.370637
33 1 0 0.75 0.25
37 1 0.125 0.875 0.375
41 1 0.497069 0.74616 0.244776
45 1 0.635185 0.867739 0.374756
48 1 0.0128835 0.503411 0.501691
52 1 0.132876 0.635776 0.637054
51 1 0.250061 0.753715 0.492239
55 1 0.379729 0.869725 0.62617
56 1 0.875 0.875 0.625
59 1 0.767834 0.743011 0.497756
50 1 0.25298 0.5032 0.760727
54 1 0.38437 0.62069 0.880314
58 1 0.743277 0.513257 0.753467
60 1 0.875 0.625 0.875
49 1 0 0.75 0.75
53 1 0.125 0.875 0.875
57 1 0.505036 0.755004 0.75793
61 1 0.625 0.875 0.875
ITEM: TIMESTEP
700
ITEM: NUMBER OF ATOMS
61
ITEM: BOX BOUNDS pp pp pp
0.0000000000000000e+00 1.0859999999999999e+01
0.0000000000000000e+00 1.0859999999999999e+01
0.0000000000000000e+00 1.0859999999999999e+01
ITEM: ATOMS id type xs ys zs
1 1 0 0 0
5 1 0.125 0.125 0.125
9 1 0.5 0 0
13 1 0.625 0.125 0.125
4 1 0.25 0.25 0
8 1 0.375658 0.373594 0.135423
12 1 0.75 0.25 0
14 1 0.875 0.375 0.125
3 1 0.25 0 0.25
7 1 0.373541 0.120294 0.376927
11 1 0.75 0 0.25
15 1 0.875 0.125 0.375
2 1 0 0.25 0.25
6 1 0.139076 0.375971 0.377122
10 1 0.495381 0.230786 0.241254
16 1 0 0 0.5
20 1 0.125 0.125 0.625
24 1 0.507445 0.00592176 0.500391
28 1 0.631173 0.126181 0.625731
19 1 0.252298 0.241504 0.500621
23 1 0.358862 0.363989 0.638512
27 1 0.753519 0.259236 0.507666
31 1 0.885038 0.380322 0.634294
18 1 0.25 0 0.75
22 1 0.375 0.125 0.875
26 1 0.75 0 0.75
30 1 0.875 0.125 0.875
17 1 0 0.25 0.75
21 1 0.125 0.375 0.875
25 1 0.499737 0.250109 0.739071
29 1 0.61855 0.377902 0.869007
32 1 0 0.5 0
36 1 0.125 0.625 0.125
40 1 0.509638 0.49292 0.00960932
44 1 0.637826 0.625534 0.128443
35 1 0.25 0.75 0
39 1 0.375 0.875 0.125
43 1 0.75 0.75 0
47 1 0.875 0.875 0.125
34 1 0.253006 0.505044 0.244314
38 1 0.367566 0.629321 0.368223
42 1 0.759351 0.496001 0.255811
46 1 0.884631 0.6196 0.368535
33 1 0 0.75 0.25
37 1 0.125 0.875 0.375
41 1 0.501018 0.736556 0.240998
45 1 0.631838 0.860463 0.38099
48 1 0.0156921 0.502337 0.510492
52 1 0.128958 0.634208 0.628096
51 1 0.247986 0.753754 0.49344
55 1 0.38056 0.864588 0.624904
56 1 0.875 0.875 0.625
59 1 0.760118 0.742608 0.494407
50 1 0.251088 0.501801 0.756405
54 1 0.381395 0.617359 0.884385
58 1 0.747182 0.509196 0.752467
60 1 0.875 0.625 0.875
49 1 0 0.75 0.75
53 1 0.125 0.875 0.875
57 1 0.50485 0.752451 0.751788
61 1 0.625 0.875 0.875
ITEM: TIMESTEP
800
ITEM: NUMBER OF ATOMS
61
ITEM: BOX BOUNDS pp pp pp
0.0000000000000000e+00 1.0859999999999999e+01
0.0000000000000000e+00 1.0859999999999999e+01
0.0000000000000000e+00 1.0859999999999999e+01
ITEM: ATOMS id type xs ys zs
1 1 0 0 0
5 1 0.125 0.125 0.125
9 1 0.5 0 0
13 1 0.625 0.125 0.125
4 1 0.25 0.25 0
8 1 0.376798 0.374797 0.137244
12 1 0.75 0.25 0
14 1 0.875 0.375 0.125
3 1 0.25 0 0.25
7 1 0.375416 0.127357 0.375535
11 1 0.75 0 0.25
15 1 0.875 0.125 0.375
2 1 0 0.25 0.25
6 1 0.140201 0.374818 0.38176
10 1 0.494303 0.23674 0.244153
16 1 0 0 0.5
20 1 0.125 0.125 0.625
24 1 0.509532 0.0118398 0.503852
28 1 0.633214 0.126003 0.624493
19 1 0.256583 0.243403 0.497945
23 1 0.365407 0.362738 0.637068
27 1 0.749391 0.257307 0.512035
31 1 0.883672 0.376496 0.631553
18 1 0.25 0 0.75
22 1 0.375 0.125 0.875
26 1 0.75 0 0.75
30 1 0.875 0.125 0.875
17 1 0 0.25 0.75
21 1 0.125 0.375 0.875
25 1 0.49883 0.249136 0.753244
29 1 0.624162 0.378546 0.869571
32 1 0 0.5 0
36 1 0.125 0.625 0.125
40 1 0.510694 0.487345 0.0102726
44 1 0.632807 0.627201 0.123873
35 1 0.25 0.75 0
39 1 0.375 0.875 0.125
43 1 0.75 0.75 0
47 1 0.875 0.875 0.125
34 1 0.247878 0.501328 0.24637
38 1 0.374498 0.631121 0.373356
42 1 0.763176 0.495566 0.251501
46 1 0.882657 0.622996 0.37169
33 1 0 0.75 0.25
37 1 0.125 0.875 0.375
41 1 0.504785 0.732649 0.24161
45 1 0.624515 0.856662 0.382822
48 1 0.0154534 0.499797 0.515193
52 1 0.127437 0.63101 0.62006
51 1 0.248039 0.751992 0.497383
55 1 0.380095 0.86537 0.622149
56 1 0.875 0.875 0.625
59 1 0.753631 0.741793 0.493455
50 1 0.247991 0.501788 0.751652
54 1 0.37911 0.616857 0.886463
58 1 0.751987 0.501825 0.750145
60 1 0.875 0.625 0.875
49 1 0 0.75 0.75
53 1 0.125 0.875 0.875
57 1 0.503022 0.745485 0.747469
61 1 0.625 0.875 0.875
ITEM: TIMESTEP
900
ITEM: NUMBER OF ATOMS
61
ITEM: BOX BOUNDS pp pp pp
0.0000000000000000e+00 1.0859999999999999e+01
0.0000000000000000e+00 1.0859999999999999e+01
0.0000000000000000e+00 1.0859999999999999e+01
ITEM: ATOMS id type xs ys zs
1 1 0 0 0
5 1 0.125 0.125 0.125
9 1 0.5 0 0
13 1 0.625 0.125 0.125
4 1 0.25 0.25 0
8 1 0.377361 0.37406 0.133293
12 1 0.75 0.25 0
14 1 0.875 0.375 0.125
3 1 0.25 0 0.25
7 1 0.379104 0.12968 0.373889
11 1 0.75 0 0.25
15 1 0.875 0.125 0.375
2 1 0 0.25 0.25
6 1 0.135207 0.373799 0.384452
10 1 0.49389 0.246251 0.24909
16 1 0 0 0.5
20 1 0.125 0.125 0.625
24 1 0.508098 0.0110072 0.504195
28 1 0.632603 0.128222 0.627437
19 1 0.258541 0.247457 0.498342
23 1 0.372655 0.363007 0.634164
27 1 0.749283 0.254494 0.512224
31 1 0.879551 0.374269 0.628023
18 1 0.25 0 0.75
22 1 0.375 0.125 0.875
26 1 0.75 0 0.75
30 1 0.875 0.125 0.875
17 1 0 0.25 0.75
21 1 0.125 0.375 0.875
25 1 0.500354 0.246903 0.766557
29 1 0.632019 0.376073 0.871815
32 1 0 0.5 0
36 1 0.125 0.625 0.125
40 1 0.509051 0.486097 0.0104377
44 1 0.629877 0.621377 0.119398
35 1 0.25 0.75 0
39 1 0.375 0.875 0.125
43 1 0.75 0.75 0
47 1 0.875 0.875 0.125
34 1 0.245579 0.498665 0.2529
38 1 0.379756 0.629504 0.3777
42 1 0.763046 0.49824 0.24635
46 1 0.881918 0.624125 0.378607
33 1 0 0.75 0.25
37 1 0.125 0.875 0.375
41 1 0.505402 0.737309 0.246001
45 1 0.615049 0.858399 0.380008
48 1 0.0103753 0.494762 0.511401
52 1 0.128097 0.628731 0.618744
51 1 0.250516 0.750143 0.500537
55 1 0.379366 0.871632 0.619798
56 1 0.875 0.875 0.625
59 1 0.75004 0.740933 0.49689
50 1 0.245869 0.502157 0.747208
54 1 0.377707 0.617745 0.885267
58 1 0.757498 0.493862 0.747449
60 1 0.875 0.625 0.875
49 1 0 0.75 0.75
53 1 0.125 0.875 0.875
57 1 0.50054 0.736858 0.746378
61 1 0.625 0.875 0.875
ITEM: TIMESTEP
1000
ITEM: NUMBER OF ATOMS
61
ITEM: BOX BOUNDS pp pp pp
0.0000000000000000e+00 1.0859999999999999e+01
0.0000000000000000e+00 1.0859999999999999e+01
0.0000000000000000e+00 1.0859999999999999e+01
ITEM: ATOMS id type xs ys zs
1 1 0 0 0
5 1 0.125 0.125 0.125
9 1 0.5 0 0
13 1 0.625 0.125 0.125
4 1 0.25 0.25 0
8 1 0.374855 0.372422 0.126743
12 1 0.75 0.25 0
14 1 0.875 0.375 0.125
3 1 0.25 0 0.25
7 1 0.381918 0.127423 0.373196
11 1 0.75 0 0.25
15 1 0.875 0.125 0.375
2 1 0 0.25 0.25
6 1 0.125507 0.371952 0.384065
10 1 0.497579 0.256523 0.25343
16 1 0 0 0.5
20 1 0.125 0.125 0.625
24 1 0.503705 0.00577676 0.501478
28 1 0.628363 0.131052 0.634489
19 1 0.258211 0.251003 0.501797
23 1 0.380636 0.365261 0.632561
27 1 0.752465 0.250698 0.507296
31 1 0.875993 0.37153 0.62439
18 1 0.25 0 0.75
22 1 0.375 0.125 0.875
26 1 0.75 0 0.75
30 1 0.875 0.125 0.875
17 1 0 0.25 0.75
21 1 0.125 0.375 0.875
25 1 0.50464 0.245949 0.772424
29 1 0.638939 0.371857 0.876872
32 1 0 0.5 0
36 1 0.125 0.625 0.125
40 1 0.505503 0.488738 0.00655228
44 1 0.628895 0.613299 0.11846
35 1 0.25 0.75 0
39 1 0.375 0.875 0.125
43 1 0.75 0.75 0
47 1 0.875 0.875 0.125
34 1 0.247675 0.498097 0.26068
38 1 0.382275 0.624431 0.380841
42 1 0.759684 0.504582 0.242604
46 1 0.881518 0.622444 0.385469
33 1 0 0.75 0.25
37 1 0.125 0.875 0.375
41 1 0.502157 0.746 0.249466
45 1 0.609518 0.865311 0.376572
48 1 0.00230382 0.49052 0.501977
52 1 0.128012 0.626793 0.623145
51 1 0.254572 0.749755 0.500639
55 1 0.379126 0.879648 0.620518
56 1 0.875 0.875 0.625
59 1 0.747636 0.742129 0.503151
50 1 0.246988 0.501258 0.74437
54 1 0.376435 0.618363 0.881402
58 1 0.762048 0.488807 0.746609
60 1 0.875 0.625 0.875
49 1 0 0.75 0.75
53 1 0.125 0.875 0.875
57 1 0.498045 0.730778 0.74737
61 1 0.625 0.875 0.875
ITEM: TIMESTEP
1100
ITEM: NUMBER OF ATOMS
61
ITEM: BOX BOUNDS pp pp pp
0.0000000000000000e+00 1.0859999999999999e+01
0.0000000000000000e+00 1.0859999999999999e+01
0.0000000000000000e+00 1.0859999999999999e+01
ITEM: ATOMS id type xs ys zs
1 1 0 0 0
5 1 0.125 0.125 0.125
9 1 0.5 0 0
13 1 0.625 0.125 0.125
4 1 0.25 0.25 0
8 1 0.37028 0.371794 0.121617
12 1 0.75 0.25 0
14 1 0.875 0.375 0.125
3 1 0.25 0 0.25
7 1 0.381923 0.124323 0.373493
11 1 0.75 0 0.25
15 1 0.875 0.125 0.375
2 1 0 0.25 0.25
6 1 0.116397 0.368618 0.380162
10 1 0.504436 0.264626 0.255817
16 1 0 0 0.5
20 1 0.125 0.125 0.625
24 1 0.499027 0.000779161 0.498846
28 1 0.622527 0.132223 0.639909
19 1 0.25642 0.252087 0.505926
23 1 0.388718 0.36931 0.632877
27 1 0.755251 0.245175 0.500009
31 1 0.8757 0.367326 0.620252
18 1 0.25 0 0.75
22 1 0.375 0.125 0.875
26 1 0.75 0 0.75
30 1 0.875 0.125 0.875
17 1 0 0.25 0.75
21 1 0.125 0.375 0.875
25 1 0.509957 0.248051 0.770303
29 1 0.641885 0.369725 0.882555
32 1 0 0.5 0
36 1 0.125 0.625 0.125
40 1 0.500582 0.492606 -0.00221017
44 1 0.627667 0.610731 0.121155
35 1 0.25 0.75 0
39 1 0.375 0.875 0.125
43 1 0.75 0.75 0
47 1 0.875 0.875 0.125
34 1 0.251988 0.498605 0.265941
38 1 0.382942 0.61853 0.38273
42 1 0.756742 0.51127 0.242078
46 1 0.878951 0.620936 0.388314
33 1 0 0.75 0.25
37 1 0.125 0.875 0.375
41 1 0.495903 0.751951 0.249297
45 1 0.612857 0.875758 0.375223
48 1 -0.00566038 0.489881 0.494858
52 1 0.125707 0.624401 0.627344
51 1 0.258412 0.750442 0.499537
55 1 0.378593 0.884922 0.624893
56 1 0.875 0.875 0.625
59 1 0.745185 0.745996 0.50948
50 1 0.251665 0.497989 0.744554
54 1 0.374069 0.6178 0.87657
58 1 0.763735 0.487916 0.749464
60 1 0.875 0.625 0.875
49 1 0 0.75 0.75
53 1 0.125 0.875 0.875
57 1 0.496606 0.730325 0.748493
61 1 0.625 0.875 0.875
ITEM: TIMESTEP
1200
ITEM: NUMBER OF ATOMS
61
ITEM: BOX BOUNDS pp pp pp
0.0000000000000000e+00 1.0859999999999999e+01
0.0000000000000000e+00 1.0859999999999999e+01
0.0000000000000000e+00 1.0859999999999999e+01
ITEM: ATOMS id type xs ys zs
1 1 0 0 0
5 1 0.125 0.125 0.125
9 1 0.5 0 0
13 1 0.625 0.125 0.125
4 1 0.25 0.25 0
8 1 0.367514 0.374178 0.119973
12 1 0.75 0.25 0
14 1 0.875 0.375 0.125
3 1 0.25 0 0.25
7 1 0.379399 0.123962 0.373855
11 1 0.75 0 0.25
15 1 0.875 0.125 0.375
2 1 0 0.25 0.25
6 1 0.112732 0.365989 0.375399
10 1 0.510889 0.268895 0.255906
16 1 0 0 0.5
20 1 0.125 0.125 0.625
24 1 0.496036 -0.000358694 0.498892
28 1 0.619205 0.129452 0.63845
19 1 0.254516 0.251387 0.508407
23 1 0.395508 0.37402 0.633672
27 1 0.754155 0.239139 0.494486
31 1 0.877139 0.363274 0.616613
18 1 0.25 0 0.75
22 1 0.375 0.125 0.875
26 1 0.75 0 0.75
30 1 0.875 0.125 0.875
17 1 0 0.25 0.75
21 1 0.125 0.375 0.875
25 1 0.512566 0.253054 0.764336
29 1 0.639126 0.37286 0.88479
32 1 0 0.5 0
36 1 0.125 0.625 0.125
40 1 0.495691 0.495293 -0.0110901
44 1 0.622782 0.616889 0.123363
35 1 0.25 0.75 0
39 1 0.375 0.875 0.125
43 1 0.75 0.75 0
47 1 0.875 0.875 0.125
34 1 0.254661 0.497559 0.266364
38 1 0.38349 0.614817 0.383902
42 1 0.757206 0.514318 0.245244
46 1 0.872127 0.623637 0.385538
33 1 0 0.75 0.25
37 1 0.125 0.875 0.375
41 1 0.490982 0.753266 0.248537
45 1 0.623228 0.884784 0.374764
48 1 -0.0101773 0.491557 0.494515
52 1 0.122877 0.621361 0.627593
51 1 0.260228 0.75119 0.49989
55 1 0.377657 0.884018 0.631114
56 1 0.875 0.875 0.625
59 1 0.742642 0.751547 0.513316
50 1 0.256961 0.493114 0.747187
54 1 0.370506 0.617331 0.87191
58 1 0.762986 0.489012 0.754771
60 1 0.875 0.625 0.875
49 1 0 0.75 0.75
53 1 0.125 0.875 0.875
57 1 0.496825 0.736486 0.748871
61 1 0.625 0.875 0.875
ITEM: TIMESTEP
1300
ITEM: NUMBER OF ATOMS
61
ITEM: BOX BOUNDS pp pp pp
0.0000000000000000e+00 1.0859999999999999e+01
0.0000000000000000e+00 1.0859999999999999e+01
0.0000000000000000e+00 1.0859999999999999e+01
ITEM: ATOMS id type xs ys zs
1 1 0 0 0
5 1 0.125 0.125 0.125
9 1 0.5 0 0
13 1 0.625 0.125 0.125
4 1 0.25 0.25 0
8 1 0.369106 0.379097 0.121693
12 1 0.75 0.25 0
14 1 0.875 0.375 0.125
3 1 0.25 0 0.25
7 1 0.375822 0.127579 0.373889
11 1 0.75 0 0.25
15 1 0.875 0.125 0.375
2 1 0 0.25 0.25
6 1 0.115996 0.367171 0.373957
10 1 0.514338 0.268953 0.253627
16 1 0 0 0.5
20 1 0.125 0.125 0.625
24 1 0.495637 0.0024313 0.501586
28 1 0.61986 0.12301 0.630004
19 1 0.253663 0.250744 0.508235
23 1 0.399103 0.378352 0.632514
27 1 0.748355 0.235023 0.49358
31 1 0.876654 0.360885 0.615082
18 1 0.25 0 0.75
22 1 0.375 0.125 0.875
26 1 0.75 0 0.75
30 1 0.875 0.125 0.875
17 1 0 0.25 0.75
21 1 0.125 0.375 0.875
25 1 0.511041 0.258238 0.758177
29 1 0.632429 0.379556 0.882361
32 1 0 0.5 0
36 1 0.125 0.625 0.125
40 1 0.492067 0.497256 -0.0147285
44 1 0.614815 0.628494 0.123819
35 1 0.25 0.75 0
39 1 0.375 0.875 0.125
43 1 0.75 0.75 0
47 1 0.875 0.875 0.125
34 1 0.253661 0.494552 0.261694
38 1 0.384333 0.614535 0.384788
42 1 0.758215 0.513073 0.248383
46 1 0.863883 0.630964 0.380374
33 1 0 0.75 0.25
37 1 0.125 0.875 0.375
41 1 0.491239 0.751295 0.250517
45 1 0.633448 0.887575 0.375464
48 1 -0.0100443 0.495024 0.498289
52 1 0.121539 0.617573 0.624383
51 1 0.259212 0.751115 0.502195
55 1 0.377286 0.877232 0.635837
56 1 0.875 0.875 0.625
59 1 0.74025 0.757544 0.512926
50 1 0.258899 0.488477 0.749636
54 1 0.367591 0.619886 0.867835
58 1 0.761421 0.48976 0.759322
60 1 0.875 0.625 0.875
49 1 0 0.75 0.75
53 1 0.125 0.875 0.875
57 1 0.498163 0.747417 0.749546
61 1 0.625 0.875 0.875
ITEM: TIMESTEP
1400
ITEM: NUMBER OF ATOMS
61
ITEM: BOX BOUNDS pp pp pp
0.0000000000000000e+00 1.0859999999999999e+01
0.0000000000000000e+00 1.0859999999999999e+01
0.0000000000000000e+00 1.0859999999999999e+01
ITEM: ATOMS id type xs ys zs
1 1 0 0 0
5 1 0.125 0.125 0.125
9 1 0.5 0 0
13 1 0.625 0.125 0.125
4 1 0.25 0.25 0
8 1 0.374677 0.382936 0.12488
12 1 0.75 0.25 0
14 1 0.875 0.375 0.125
3 1 0.25 0 0.25
7 1 0.373341 0.133747 0.373551
11 1 0.75 0 0.25
15 1 0.875 0.125 0.375
2 1 0 0.25 0.25
6 1 0.123892 0.372033 0.376813
10 1 0.513701 0.265288 0.249515
16 1 0 0 0.5
20 1 0.125 0.125 0.625
24 1 0.49633 0.00509778 0.504423
28 1 0.623078 0.117078 0.620273
19 1 0.253956 0.251776 0.506051
23 1 0.397744 0.382081 0.627531
27 1 0.740325 0.234292 0.496472
31 1 0.87291 0.360806 0.616228
18 1 0.25 0 0.75
22 1 0.375 0.125 0.875
26 1 0.75 0 0.75
30 1 0.875 0.125 0.875
17 1 0 0.25 0.75
21 1 0.125 0.375 0.875
25 1 0.507714 0.259162 0.75257
29 1 0.625171 0.384529 0.877602
32 1 0 0.5 0
36 1 0.125 0.625 0.125
40 1 0.489499 0.501633 -0.0115222
44 1 0.608022 0.638517 0.12282
35 1 0.25 0.75 0
39 1 0.375 0.875 0.125
43 1 0.75 0.75 0
47 1 0.875 0.875 0.125
34 1 0.250066 0.493095 0.25432
38 1 0.383751 0.616778 0.384881
42 1 0.755182 0.509471 0.247638
46 1 0.859187 0.640152 0.377034
33 1 0 0.75 0.25
37 1 0.125 0.875 0.375
41 1 0.495711 0.749596 0.256012
45 1 0.636828 0.884051 0.378392
48 1 -0.00765849 0.500151 0.50099
52 1 0.122758 0.614396 0.621051
51 1 0.255445 0.749242 0.505156
55 1 0.376621 0.869656 0.635497
56 1 0.875 0.875 0.625
59 1 0.738836 0.762488 0.508987
50 1 0.256196 0.485921 0.74951
54 1 0.367174 0.626563 0.864968
58 1 0.76037 0.489966 0.760362
60 1 0.875 0.625 0.875
49 1 0 0.75 0.75
53 1 0.125 0.875 0.875
57 1 0.500425 0.758481 0.752316
61 1 0.625 0.875 0.875
ITEM: TIMESTEP
1500
ITEM: NUMBER OF ATOMS
61
ITEM: BOX BOUNDS pp pp pp
0.0000000000000000e+00 1.0859999999999999e+01
0.0000000000000000e+00 1.0859999999999999e+01
0.0000000000000000e+00 1.0859999999999999e+01
ITEM: ATOMS id type xs ys zs
1 1 0 0 0
5 1 0.125 0.125 0.125
9 1 0.5 0 0
13 1 0.625 0.125 0.125
4 1 0.25 0.25 0
8 1 0.381267 0.38256 0.12742
12 1 0.75 0.25 0
14 1 0.875 0.375 0.125
3 1 0.25 0 0.25
7 1 0.373688 0.139255 0.372464
11 1 0.75 0 0.25
15 1 0.875 0.125 0.375
2 1 0 0.25 0.25
6 1 0.131438 0.377859 0.381287
10 1 0.509273 0.258948 0.245159
16 1 0 0 0.5
20 1 0.125 0.125 0.625
24 1 0.494988 0.00377096 0.503977
28 1 0.626744 0.11448 0.616548
19 1 0.254785 0.255301 0.503789
23 1 0.39146 0.384435 0.619424
27 1 0.734859 0.23785 0.498882
31 1 0.867538 0.363585 0.619354
18 1 0.25 0 0.75
22 1 0.375 0.125 0.875
26 1 0.75 0 0.75
30 1 0.875 0.125 0.875
17 1 0 0.25 0.75
21 1 0.125 0.375 0.875
25 1 0.504428 0.25447 0.746959
29 1 0.618751 0.384933 0.873512
32 1 0 0.5 0
36 1 0.125 0.625 0.125
40 1 0.488264 0.510067 -0.00420756
44 1 0.605867 0.64186 0.119692
35 1 0.25 0.75 0
39 1 0.375 0.875 0.125
43 1 0.75 0.75 0
47 1 0.875 0.875 0.125
34 1 0.246681 0.49658 0.247387
38 1 0.380107 0.619981 0.383536
42 1 0.747953 0.506716 0.243775
46 1 0.859127 0.646675 0.375391
33 1 0 0.75 0.25
37 1 0.125 0.875 0.375
41 1 0.500833 0.751834 0.264399
45 1 0.63068 0.879024 0.381024
48 1 -0.00651582 0.504745 0.499834
52 1 0.126369 0.613886 0.62131
51 1 0.249868 0.745092 0.506693
55 1 0.374095 0.867095 0.629632
56 1 0.875 0.875 0.625
59 1 0.740188 0.764222 0.505174
50 1 0.25101 0.487426 0.746463
54 1 0.368865 0.634929 0.863595
58 1 0.760149 0.490336 0.757293
60 1 0.875 0.625 0.875
49 1 0 0.75 0.75
53 1 0.125 0.875 0.875
57 1 0.503109 0.764374 0.756703
61 1 0.625 0.875 0.875
ITEM: TIMESTEP
1600
ITEM: NUMBER OF ATOMS
61
ITEM: BOX BOUNDS pp pp pp
0.0000000000000000e+00 1.0859999999999999e+01
0.0000000000000000e+00 1.0859999999999999e+01
0.0000000000000000e+00 1.0859999999999999e+01
ITEM: ATOMS id type xs ys zs
1 1 0 0 0
5 1 0.125 0.125 0.125
9 1 0.5 0 0
13 1 0.625 0.125 0.125
4 1 0.25 0.25 0
8 1 0.384562 0.379359 0.127496
12 1 0.75 0.25 0
14 1 0.875 0.375 0.125
3 1 0.25 0 0.25
7 1 0.376284 0.140965 0.370802
11 1 0.75 0 0.25
15 1 0.875 0.125 0.375
2 1 0 0.25 0.25
6 1 0.134441 0.383524 0.38381
10 1 0.503051 0.251342 0.242561
16 1 0 0 0.5
20 1 0.125 0.125 0.625
24 1 0.491193 -0.000783487 0.499512
28 1 0.627842 0.114357 0.620605
19 1 0.255591 0.259884 0.502666
23 1 0.382563 0.384495 0.611552
27 1 0.734975 0.24542 0.497997
31 1 0.863663 0.368618 0.622493
18 1 0.25 0 0.75
22 1 0.375 0.125 0.875
26 1 0.75 0 0.75
30 1 0.875 0.125 0.875
17 1 0 0.25 0.75
21 1 0.125 0.375 0.875
25 1 0.500858 0.246781 0.740777
29 1 0.613706 0.382027 0.871605
32 1 0 0.5 0
36 1 0.125 0.625 0.125
40 1 0.488706 0.519735 0.00217791
44 1 0.609088 0.63998 0.116994
35 1 0.25 0.75 0
39 1 0.375 0.875 0.125
43 1 0.75 0.75 0
47 1 0.875 0.875 0.125
34 1 0.24662 0.503297 0.243228
38 1 0.373449 0.623135 0.380782
42 1 0.739072 0.507009 0.239138
46 1 0.86219 0.646332 0.37344
33 1 0 0.75 0.25
37 1 0.125 0.875 0.375
41 1 0.503152 0.756198 0.271474
45 1 0.618793 0.87773 0.381682
48 1 -0.00812554 0.507353 0.496154
52 1 0.128898 0.616581 0.625392
51 1 0.244495 0.740498 0.50501
55 1 0.370737 0.870045 0.622076
56 1 0.875 0.875 0.625
59 1 0.744445 0.762165 0.503928
50 1 0.24705 0.49326 0.742346
54 1 0.370712 0.640903 0.863635
58 1 0.758915 0.49162 0.752624
60 1 0.875 0.625 0.875
49 1 0 0.75 0.75
53 1 0.125 0.875 0.875
57 1 0.50351 0.763935 0.758233
61 1 0.625 0.875 0.875
ITEM: TIMESTEP
1700
ITEM: NUMBER OF ATOMS
61
ITEM: BOX BOUNDS pp pp pp
0.0000000000000000e+00 1.0859999999999999e+01
0.0000000000000000e+00 1.0859999999999999e+01