ITEM: TIMESTEP
0
ITEM: NUMBER OF ATOMS
61
ITEM: BOX BOUNDS pp pp pp
0.0000000000000000e+00 1.0859999999999999e+01
0.0000000000000000e+00 1.0859999999999999e+01
0.0000000000000000e+00 1.0859999999999999e+01
ITEM: ATOMS id type xs ys zs
1 1 0 0 0
5 1 0.125 0.125 0.125
9 1 0.5 0 0
13 1 0.625 0.125 0.125
4 1 0.25 0.25 0
8 1 0.375 0.375 0.125
12 1 0.75 0.25 0
14 1 0.875 0.375 0.125
3 1 0.25 0 0.25
7 1 0.375 0.125 0.375
11 1 0.75 0 0.25
15 1 0.875 0.125 0.375
2 1 0 0.25 0.25
6 1 0.125 0.375 0.375
10 1 0.5 0.25 0.25
16 1 0 0 0.5
20 1 0.125 0.125 0.625
24 1 0.5 0 0.5
28 1 0.625 0.125 0.625
19 1 0.25 0.25 0.5
23 1 0.875 0.375 0.625
27 1 0.75 0.25 0.5
18 1 0.25 0 0.75
22 1 0.375 0.125 0.875
26 1 0.75 0 0.75
30 1 0.875 0.125 0.875
17 1 0 0.25 0.75
21 1 0.125 0.375 0.875
25 1 0.5 0.25 0.75
29 1 0.625 0.375 0.875
31 1 0 0.5 0
35 1 0.125 0.625 0.125
39 1 0.5 0.5 0
43 1 0.625 0.625 0.125
34 1 0.25 0.75 0
38 1 0.375 0.875 0.125
42 1 0.75 0.75 0
46 1 0.875 0.875 0.125
33 1 0.25 0.5 0.25
37 1 0.375 0.625 0.375
41 1 0.75 0.5 0.25
45 1 0.875 0.625 0.375
32 1 0 0.75 0.25
36 1 0.125 0.875 0.375
40 1 0.5 0.75 0.25
44 1 0.625 0.875 0.375
47 1 0 0.5 0.5
51 1 0.125 0.625 0.625
55 1 0.5 0.5 0.5
50 1 0.25 0.75 0.5
54 1 0.375 0.875 0.625
58 1 0.75 0.75 0.5
59 1 0.875 0.875 0.625
49 1 0.25 0.5 0.75
53 1 0.375 0.625 0.875
57 1 0.75 0.5 0.75
61 1 0.875 0.625 0.875
48 1 0 0.75 0.75
52 1 0.125 0.875 0.875
56 1 0.5 0.75 0.75
60 1 0.625 0.875 0.875
ITEM: TIMESTEP
100
ITEM: NUMBER OF ATOMS
61
ITEM: BOX BOUNDS pp pp pp
0.0000000000000000e+00 1.0859999999999999e+01
0.0000000000000000e+00 1.0859999999999999e+01
0.0000000000000000e+00 1.0859999999999999e+01
ITEM: ATOMS id type xs ys zs
1 1 0 0 0
5 1 0.125 0.125 0.125
9 1 0.5 0 0
13 1 0.625 0.125 0.125
4 1 0.25 0.25 0
8 1 0.376278 0.371101 0.120434
12 1 0.75 0.25 0
14 1 0.875 0.375 0.125
3 1 0.25 0 0.25
7 1 0.37322 0.118077 0.389208
11 1 0.75 0 0.25
15 1 0.875 0.125 0.375
2 1 0 0.25 0.25
6 1 0.121076 0.369858 0.370103
10 1 0.488529 0.246675 0.255088
16 1 0 0 0.5
20 1 0.125 0.125 0.625
24 1 0.509596 -0.011011 0.502002
28 1 0.630117 0.120989 0.600567
19 1 0.243551 0.248491 0.482962
23 1 0.865219 0.37861 0.622179
27 1 0.761639 0.251283 0.502883
18 1 0.25 0 0.75
22 1 0.375 0.125 0.875
26 1 0.75 0 0.75
30 1 0.875 0.125 0.875
17 1 0 0.25 0.75
21 1 0.125 0.375 0.875
25 1 0.493673 0.250525 0.756114
29 1 0.626691 0.379912 0.878767
31 1 0 0.5 0
35 1 0.125 0.625 0.125
39 1 0.514922 0.500406 0.00189244
43 1 0.621577 0.617754 0.121562
34 1 0.25 0.75 0
38 1 0.375 0.875 0.125
42 1 0.75 0.75 0
46 1 0.875 0.875 0.125
33 1 0.237962 0.50918 0.249174
37 1 0.378028 0.629233 0.384671
41 1 0.76092 0.501541 0.246275
45 1 0.891408 0.611843 0.377757
32 1 0 0.75 0.25
36 1 0.125 0.875 0.375
40 1 0.505869 0.746485 0.240045
44 1 0.613161 0.882932 0.380021
47 1 -0.0120329 0.497664 0.496753
51 1 0.132373 0.6274 0.636592
55 1 0.499378 0.492451 0.506372
50 1 0.256426 0.755449 0.509401
54 1 0.37361 0.88455 0.635981
58 1 0.740182 0.752582 0.495676
59 1 0.875 0.875 0.625
49 1 0.24253 0.4964 0.749922
53 1 0.37478 0.631901 0.872296
57 1 0.74768 0.510046 0.739608
61 1 0.875 0.625 0.875
48 1 0 0.75 0.75
52 1 0.125 0.875 0.875
56 1 0.508868 0.751539 0.750966
60 1 0.625 0.875 0.875
ITEM: TIMESTEP
200
ITEM: NUMBER OF ATOMS
61
ITEM: BOX BOUNDS pp pp pp
0.0000000000000000e+00 1.0859999999999999e+01
0.0000000000000000e+00 1.0859999999999999e+01
0.0000000000000000e+00 1.0859999999999999e+01
ITEM: ATOMS id type xs ys zs
1 1 0 0 0
5 1 0.125 0.125 0.125
9 1 0.5 0 0
13 1 0.625 0.125 0.125
4 1 0.25 0.25 0
8 1 0.376643 0.371424 0.118911
12 1 0.75 0.25 0
14 1 0.875 0.375 0.125
3 1 0.25 0 0.25
7 1 0.373418 0.109768 0.398456
11 1 0.75 0 0.25
15 1 0.875 0.125 0.375
2 1 0 0.25 0.25
6 1 0.115352 0.370308 0.365456
10 1 0.479022 0.24147 0.258782
16 1 0 0 0.5
20 1 0.125 0.125 0.625
24 1 0.507419 -0.015336 0.50831
28 1 0.633334 0.122461 0.589455
19 1 0.236445 0.245528 0.472862
23 1 0.860459 0.382641 0.623217
27 1 0.769577 0.250761 0.500937
18 1 0.25 0 0.75
22 1 0.375 0.125 0.875
26 1 0.75 0 0.75
30 1 0.875 0.125 0.875
17 1 0 0.25 0.75
21 1 0.125 0.375 0.875
25 1 0.494888 0.249088 0.756486
29 1 0.630615 0.382718 0.877083
31 1 0 0.5 0
35 1 0.125 0.625 0.125
39 1 0.517998 0.499008 0.000315548
43 1 0.627313 0.615083 0.122116
34 1 0.25 0.75 0
38 1 0.375 0.875 0.125
42 1 0.75 0.75 0
46 1 0.875 0.875 0.125
33 1 0.233855 0.5131 0.251387
37 1 0.381486 0.631781 0.391632
41 1 0.769429 0.504033 0.243134
45 1 0.893515 0.612463 0.372775
32 1 0 0.75 0.25
36 1 0.125 0.875 0.375
40 1 0.507348 0.744852 0.23548
44 1 0.610774 0.880771 0.374457
47 1 -0.00883628 0.489295 0.504442
51 1 0.133949 0.628974 0.640175
55 1 0.497928 0.486021 0.511843
50 1 0.260654 0.760773 0.51807
54 1 0.377464 0.888093 0.643367
58 1 0.735833 0.753098 0.490741
59 1 0.875 0.875 0.625
49 1 0.240678 0.493739 0.75266
53 1 0.376231 0.634043 0.869919
57 1 0.744015 0.518485 0.733016
61 1 0.875 0.625 0.875
48 1 0 0.75 0.75
52 1 0.125 0.875 0.875
56 1 0.513958 0.753559 0.750913
60 1 0.625 0.875 0.875
ITEM: TIMESTEP
300
ITEM: NUMBER OF ATOMS
61
ITEM: BOX BOUNDS pp pp pp
0.0000000000000000e+00 1.0859999999999999e+01
0.0000000000000000e+00 1.0859999999999999e+01
0.0000000000000000e+00 1.0859999999999999e+01
ITEM: ATOMS id type xs ys zs
1 1 0 0 0
5 1 0.125 0.125 0.125
9 1 0.5 0 0
13 1 0.625 0.125 0.125
4 1 0.25 0.25 0
8 1 0.375406 0.376199 0.121564
12 1 0.75 0.25 0
14 1 0.875 0.375 0.125
3 1 0.25 0 0.25
7 1 0.374095 0.10118 0.402068
11 1 0.75 0 0.25
15 1 0.875 0.125 0.375
2 1 0 0.25 0.25
6 1 0.10968 0.377769 0.363235
10 1 0.47251 0.234637 0.260194
16 1 0 0 0.5
20 1 0.125 0.125 0.625
24 1 0.498083 -0.0156106 0.514901
28 1 0.632492 0.130216 0.59575
19 1 0.229274 0.240667 0.469923
23 1 0.86109 0.385171 0.629509
27 1 0.772429 0.250165 0.494599
18 1 0.25 0 0.75
22 1 0.375 0.125 0.875
26 1 0.75 0 0.75
30 1 0.875 0.125 0.875
17 1 0 0.25 0.75
21 1 0.125 0.375 0.875
25 1 0.506179 0.244981 0.748677
29 1 0.636189 0.382462 0.869122
31 1 0 0.5 0
35 1 0.125 0.625 0.125
39 1 0.50937 0.49705 -0.00362239
43 1 0.640059 0.617246 0.125184
34 1 0.25 0.75 0
38 1 0.375 0.875 0.125
42 1 0.75 0.75 0
46 1 0.875 0.875 0.125
33 1 0.240186 0.510347 0.25704
37 1 0.384694 0.63226 0.395527
41 1 0.772884 0.507078 0.241198
45 1 0.886062 0.622275 0.367371
32 1 0 0.75 0.25
36 1 0.125 0.875 0.375
40 1 0.50404 0.744361 0.237172
44 1 0.615755 0.871382 0.360958
47 1 0.00570459 0.482707 0.516432
51 1 0.130495 0.62932 0.635848
55 1 0.495527 0.481258 0.516103
50 1 0.261786 0.764558 0.524019
54 1 0.386126 0.883752 0.64745
58 1 0.738412 0.751102 0.486081
59 1 0.875 0.875 0.625
49 1 0.24598 0.493421 0.756774
53 1 0.37915 0.630816 0.86865
57 1 0.739161 0.525338 0.731427
61 1 0.875 0.625 0.875
48 1 0 0.75 0.75
52 1 0.125 0.875 0.875
56 1 0.514285 0.754529 0.749503
60 1 0.625 0.875 0.875
ITEM: TIMESTEP
400
ITEM: NUMBER OF ATOMS
61
ITEM: BOX BOUNDS pp pp pp
0.0000000000000000e+00 1.0859999999999999e+01
0.0000000000000000e+00 1.0859999999999999e+01
0.0000000000000000e+00 1.0859999999999999e+01
ITEM: ATOMS id type xs ys zs
1 1 0 0 0
5 1 0.125 0.125 0.125
9 1 0.5 0 0
13 1 0.625 0.125 0.125
4 1 0.25 0.25 0
8 1 0.372463 0.38208 0.127545
12 1 0.75 0.25 0
14 1 0.875 0.375 0.125
3 1 0.25 0 0.25
7 1 0.37117 0.0963273 0.399429
11 1 0.75 0 0.25
15 1 0.875 0.125 0.375
2 1 0 0.25 0.25
6 1 0.108162 0.38856 0.364619
10 1 0.469319 0.227265 0.258296
16 1 0 0 0.5
20 1 0.125 0.125 0.625
24 1 0.495685 -0.0145852 0.515942
28 1 0.630087 0.136579 0.61028
19 1 0.222364 0.234374 0.470741
23 1 0.864895 0.384116 0.637892
27 1 0.769329 0.253147 0.489733
18 1 0.25 0 0.75
22 1 0.375 0.125 0.875
26 1 0.75 0 0.75
30 1 0.875 0.125 0.875
17 1 0 0.25 0.75
21 1 0.125 0.375 0.875
25 1 0.520634 0.241447 0.740314
29 1 0.640079 0.380352 0.858479
31 1 0 0.5 0
35 1 0.125 0.625 0.125
39 1 0.498602 0.496795 -0.00689776
43 1 0.648763 0.621761 0.125851
34 1 0.25 0.75 0
38 1 0.375 0.875 0.125
42 1 0.75 0.75 0
46 1 0.875 0.875 0.125
33 1 0.25304 0.50523 0.262402
37 1 0.386338 0.630753 0.397482
41 1 0.771396 0.508585 0.241343
45 1 0.878264 0.631637 0.370821
32 1 0 0.75 0.25
36 1 0.125 0.875 0.375
40 1 0.498053 0.74184 0.241728
44 1 0.622527 0.863286 0.350547
47 1 0.0200608 0.48465 0.524729
51 1 0.127189 0.627826 0.629382
55 1 0.492323 0.478402 0.519038
50 1 0.259969 0.765415 0.524925
54 1 0.392947 0.874504 0.651178
58 1 0.746308 0.748312 0.483137
59 1 0.875 0.875 0.625
49 1 0.254841 0.49701 0.758929
53 1 0.382671 0.624757 0.869391
57 1 0.734582 0.530674 0.733929
61 1 0.875 0.625 0.875
48 1 0 0.75 0.75
52 1 0.125 0.875 0.875
56 1 0.512189 0.751539 0.748985
60 1 0.625 0.875 0.875
ITEM: TIMESTEP
500
ITEM: NUMBER OF ATOMS
61
ITEM: BOX BOUNDS pp pp pp
0.0000000000000000e+00 1.0859999999999999e+01
0.0000000000000000e+00 1.0859999999999999e+01
0.0000000000000000e+00 1.0859999999999999e+01
ITEM: ATOMS id type xs ys zs
1 1 0 0 0
5 1 0.125 0.125 0.125
9 1 0.5 0 0
13 1 0.625 0.125 0.125
4 1 0.25 0.25 0
8 1 0.369366 0.384815 0.134449
12 1 0.75 0.25 0
14 1 0.875 0.375 0.125
3 1 0.25 0 0.25
7 1 0.364256 0.0967115 0.392166
11 1 0.75 0 0.25
15 1 0.875 0.125 0.375
2 1 0 0.25 0.25
6 1 0.111816 0.396465 0.36668
10 1 0.469149 0.220844 0.252173
16 1 0 0 0.5
20 1 0.125 0.125 0.625
24 1 0.5046 -0.0138222 0.511757
28 1 0.632564 0.134317 0.622033
19 1 0.216158 0.228765 0.471869
23 1 0.870229 0.381402 0.644396
27 1 0.760467 0.260215 0.489784
18 1 0.25 0 0.75
22 1 0.375 0.125 0.875
26 1 0.75 0 0.75
30 1 0.875 0.125 0.875
17 1 0 0.25 0.75
21 1 0.125 0.375 0.875
25 1 0.528544 0.243015 0.739804
29 1 0.640594 0.377675 0.850275
31 1 0 0.5 0
35 1 0.125 0.625 0.125
39 1 0.49343 0.496987 -0.007569
43 1 0.646231 0.626453 0.123485
34 1 0.25 0.75 0
38 1 0.375 0.875 0.125
42 1 0.75 0.75 0
46 1 0.875 0.875 0.125
33 1 0.267006 0.502915 0.265544
37 1 0.385556 0.627451 0.398928
41 1 0.767559 0.507887 0.245003
45 1 0.879792 0.630579 0.384354
32 1 0 0.75 0.25
36 1 0.125 0.875 0.375
40 1 0.491264 0.735901 0.245241
44 1 0.629073 0.859753 0.349335
47 1 0.0215101 0.4952 0.525126
51 1 0.129309 0.627945 0.627378
55 1 0.488544 0.477296 0.520785
50 1 0.256227 0.763166 0.520074
54 1 0.391981 0.867729 0.652159
58 1 0.754631 0.748703 0.484422
59 1 0.875 0.875 0.625
49 1 0.261971 0.502461 0.757255
53 1 0.384992 0.620712 0.872436
57 1 0.732097 0.533944 0.738205
61 1 0.875 0.625 0.875
48 1 0 0.75 0.75
52 1 0.125 0.875 0.875
56 1 0.512585 0.741597 0.752839
60 1 0.625 0.875 0.875
ITEM: TIMESTEP
600
ITEM: NUMBER OF ATOMS
61
ITEM: BOX BOUNDS pp pp pp
0.0000000000000000e+00 1.0859999999999999e+01
0.0000000000000000e+00 1.0859999999999999e+01
0.0000000000000000e+00 1.0859999999999999e+01
ITEM: ATOMS id type xs ys zs
1 1 0 0 0
5 1 0.125 0.125 0.125
9 1 0.5 0 0
13 1 0.625 0.125 0.125
4 1 0.25 0.25 0
8 1 0.369873 0.380806 0.137786
12 1 0.75 0.25 0
14 1 0.875 0.375 0.125
3 1 0.25 0 0.25
7 1 0.35927 0.101437 0.385387
11 1 0.75 0 0.25
15 1 0.875 0.125 0.375
2 1 0 0.25 0.25
6 1 0.119071 0.398594 0.368535
10 1 0.470958 0.216608 0.24214
16 1 0 0 0.5
20 1 0.125 0.125 0.625
24 1 0.517798 -0.0136688 0.50512
28 1 0.642842 0.122235 0.624084
19 1 0.211413 0.226224 0.47091
23 1 0.87445 0.380464 0.646306
27 1 0.749476 0.267939 0.494252
18 1 0.25 0 0.75
22 1 0.375 0.125 0.875
26 1 0.75 0 0.75
30 1 0.875 0.125 0.875
17 1 0 0.25 0.75
21 1 0.125 0.375 0.875
25 1 0.522566 0.249286 0.748615
29 1 0.639032 0.376557 0.849693
31 1 0 0.5 0
35 1 0.125 0.625 0.125
39 1 0.497348 0.495009 -0.00365235
43 1 0.63297 0.627478 0.121388
34 1 0.25 0.75 0
38 1 0.375 0.875 0.125
42 1 0.75 0.75 0
46 1 0.875 0.875 0.125
33 1 0.275232 0.50627 0.267834
37 1 0.383039 0.623325 0.401326
41 1 0.76307 0.507117 0.251655
45 1 0.890067 0.619935 0.39703
32 1 0 0.75 0.25
36 1 0.125 0.875 0.375
40 1 0.486799 0.729741 0.246636
44 1 0.633528 0.858896 0.355892
47 1 0.00978762 0.507296 0.519442
51 1 0.137783 0.631532 0.632971
55 1 0.484539 0.477444 0.521859
50 1 0.252286 0.758644 0.510658
54 1 0.386382 0.865786 0.647554
58 1 0.759547 0.754338 0.49205
59 1 0.875 0.875 0.625
49 1 0.264017 0.506458 0.752191
53 1 0.383884 0.621842 0.877325
57 1 0.732967 0.534301 0.742395
61 1 0.875 0.625 0.875
48 1 0 0.75 0.75
52 1 0.125 0.875 0.875
56 1 0.515916 0.728004 0.759685
60 1 0.625 0.875 0.875
ITEM: TIMESTEP
700
ITEM: NUMBER OF ATOMS
61
ITEM: BOX BOUNDS pp pp pp
0.0000000000000000e+00 1.0859999999999999e+01
0.0000000000000000e+00 1.0859999999999999e+01
0.0000000000000000e+00 1.0859999999999999e+01
ITEM: ATOMS id type xs ys zs
1 1 0 0 0
5 1 0.125 0.125 0.125
9 1 0.5 0 0
13 1 0.625 0.125 0.125
4 1 0.25 0.25 0
8 1 0.374606 0.371787 0.135411
12 1 0.75 0.25 0
14 1 0.875 0.375 0.125
3 1 0.25 0 0.25
7 1 0.361132 0.109696 0.382372
11 1 0.75 0 0.25
15 1 0.875 0.125 0.375
2 1 0 0.25 0.25
6 1 0.126397 0.396098 0.371515
10 1 0.473001 0.214734 0.231186
16 1 0 0 0.5
20 1 0.125 0.125 0.625
24 1 0.528373 -0.0141598 0.497711
28 1 0.650431 0.112097 0.620868
19 1 0.208732 0.227557 0.467403
23 1 0.875422 0.383413 0.642602
27 1 0.740815 0.273436 0.501468
18 1 0.25 0 0.75
22 1 0.375 0.125 0.875
26 1 0.75 0 0.75
30 1 0.875 0.125 0.875
17 1 0 0.25 0.75
21 1 0.125 0.375 0.875
25 1 0.508944 0.250446 0.755263
29 1 0.637179 0.378904 0.8594
31 1 0 0.5 0
35 1 0.125 0.625 0.125
39 1 0.507129 0.49069 0.00291128
43 1 0.616393 0.623511 0.121641
34 1 0.25 0.75 0
38 1 0.375 0.875 0.125
42 1 0.75 0.75 0
46 1 0.875 0.875 0.125
33 1 0.27425 0.512298 0.267328
37 1 0.380782 0.620624 0.404804
41 1 0.758493 0.507013 0.258768
45 1 0.895854 0.613107 0.399656
32 1 0 0.75 0.25
36 1 0.125 0.875 0.375
40 1 0.486091 0.727305 0.247244
44 1 0.634722 0.858926 0.365972
47 1 -0.00122211 0.514295 0.517323
51 1 0.145413 0.635384 0.640378
55 1 0.480928 0.478027 0.523274
50 1 0.25029 0.753606 0.500157
54 1 0.381909 0.865524 0.638205
58 1 0.763267 0.759413 0.502231
59 1 0.875 0.875 0.625
49 1 0.262207 0.507097 0.747535
53 1 0.379061 0.624369 0.88455
57 1 0.737106 0.530945 0.745462
61 1 0.875 0.625 0.875
48 1 0 0.75 0.75
52 1 0.125 0.875 0.875
56 1 0.519989 0.717885 0.764907
60 1 0.625 0.875 0.875
ITEM: TIMESTEP
800
ITEM: NUMBER OF ATOMS
61
ITEM: BOX BOUNDS pp pp pp
0.0000000000000000e+00 1.0859999999999999e+01
0.0000000000000000e+00 1.0859999999999999e+01
0.0000000000000000e+00 1.0859999999999999e+01
ITEM: ATOMS id type xs ys zs
1 1 0 0 0
5 1 0.125 0.125 0.125
9 1 0.5 0 0
13 1 0.625 0.125 0.125
4 1 0.25 0.25 0
8 1 0.380021 0.364815 0.128511
12 1 0.75 0.25 0
14 1 0.875 0.375 0.125
3 1 0.25 0 0.25
7 1 0.370511 0.118672 0.382355
11 1 0.75 0 0.25
15 1 0.875 0.125 0.375
2 1 0 0.25 0.25
6 1 0.128867 0.393228 0.375374
10 1 0.473907 0.214136 0.223982
16 1 0 0 0.5
20 1 0.125 0.125 0.625
24 1 0.531318 -0.0135957 0.492051
28 1 0.648545 0.111523 0.614183
19 1 0.209047 0.230217 0.4635
23 1 0.872723 0.389013 0.635022
27 1 0.736451 0.275505 0.509507
18 1 0.25 0 0.75
22 1 0.375 0.125 0.875
26 1 0.75 0 0.75
30 1 0.875 0.125 0.875
17 1 0 0.25 0.75
21 1 0.125 0.375 0.875
25 1 0.496588 0.246227 0.756227
29 1 0.633909 0.381925 0.874884
31 1 0 0.5 0
35 1 0.125 0.625 0.125
39 1 0.514841 0.484425 0.00816952
43 1 0.60615 0.617436 0.124644
34 1 0.25 0.75 0
38 1 0.375 0.875 0.125
42 1 0.75 0.75 0
46 1 0.875 0.875 0.125
33 1 0.266295 0.515477 0.260686
37 1 0.380798 0.619869 0.406081
41 1 0.754141 0.506997 0.263976
45 1 0.886412 0.621694 0.385645
32 1 0 0.75 0.25
36 1 0.125 0.875 0.375
40 1 0.487644 0.730784 0.249956
44 1 0.634493 0.858312 0.374419
47 1 0.00290498 0.509186 0.527453
51 1 0.146302 0.639466 0.643245
55 1 0.478404 0.478129 0.526112
50 1 0.250287 0.750067 0.493042
54 1 0.381125 0.864557 0.626661
58 1 0.765501 0.757757 0.509222
59 1 0.875 0.875 0.625
49 1 0.260266 0.503378 0.74795
53 1 0.373203 0.622876 0.89251
57 1 0.74328 0.523124 0.747324
61 1 0.875 0.625 0.875
48 1 0 0.75 0.75
52 1 0.125 0.875 0.875
56 1 0.522795 0.714589 0.766449
60 1 0.625 0.875 0.875
ITEM: TIMESTEP
900
ITEM: NUMBER OF ATOMS
61
ITEM: BOX BOUNDS pp pp pp
0.0000000000000000e+00 1.0859999999999999e+01
0.0000000000000000e+00 1.0859999999999999e+01
0.0000000000000000e+00 1.0859999999999999e+01
ITEM: ATOMS id type xs ys zs
1 1 0 0 0
5 1 0.125 0.125 0.125
9 1 0.5 0 0
13 1 0.625 0.125 0.125
4 1 0.25 0.25 0
8 1 0.381763 0.364564 0.119154
12 1 0.75 0.25 0
14 1 0.875 0.375 0.125
3 1 0.25 0 0.25
7 1 0.383902 0.124454 0.383498
11 1 0.75 0 0.25
15 1 0.875 0.125 0.375
2 1 0 0.25 0.25
6 1 0.124465 0.393436 0.377611
10 1 0.473803 0.214262 0.222861
16 1 0 0 0.5
20 1 0.125 0.125 0.625
24 1 0.523564 -0.00990318 0.4902
28 1 0.636525 0.119869 0.610362
19 1 0.213896 0.229784 0.461854
23 1 0.867799 0.392198 0.62887
27 1 0.738016 0.273476 0.513247
18 1 0.25 0 0.75
22 1 0.375 0.125 0.875
26 1 0.75 0 0.75
30 1 0.875 0.125 0.875
17 1 0 0.25 0.75
21 1 0.125 0.375 0.875
25 1 0.493239 0.240406 0.751001
29 1 0.630193 0.3811 0.886672
31 1 0 0.5 0
35 1 0.125 0.625 0.125
39 1 0.512695 0.47828 0.0110882
43 1 0.60829 0.614093 0.131528
34 1 0.25 0.75 0
38 1 0.375 0.875 0.125
42 1 0.75 0.75 0
46 1 0.875 0.875 0.125
33 1 0.256043 0.51405 0.249856
37 1 0.383026 0.618694 0.400977
41 1 0.748794 0.505258 0.264502
45 1 0.873844 0.635199 0.370228
32 1 0 0.75 0.25
36 1 0.125 0.875 0.375
40 1 0.490372 0.739543 0.255792
44 1 0.635495 0.855648 0.377429
47 1 0.0138955 0.504308 0.534859
51 1 0.142216 0.642503 0.641471
55 1 0.477052 0.477453 0.530618
50 1 0.250276 0.749275 0.491842
54 1 0.386192 0.861345 0.617923
58 1 0.763501 0.748277 0.510353
59 1 0.875 0.875 0.625
49 1 0.258749 0.497048 0.753663
53 1 0.370993 0.61542 0.89759
57 1 0.749311 0.511087 0.749901
61 1 0.875 0.625 0.875
48 1 0 0.75 0.75
52 1 0.125 0.875 0.875
56 1 0.519698 0.719189 0.763327
60 1 0.625 0.875 0.875
ITEM: TIMESTEP
1000
ITEM: NUMBER OF ATOMS
61
ITEM: BOX BOUNDS pp pp pp
0.0000000000000000e+00 1.0859999999999999e+01
0.0000000000000000e+00 1.0859999999999999e+01
0.0000000000000000e+00 1.0859999999999999e+01
ITEM: ATOMS id type xs ys zs
1 1 0 0 0
5 1 0.125 0.125 0.125
9 1 0.5 0 0
13 1 0.625 0.125 0.125
4 1 0.25 0.25 0
8 1 0.3763 0.368391 0.113175
12 1 0.75 0.25 0
14 1 0.875 0.375 0.125
3 1 0.25 0 0.25
7 1 0.394929 0.125276 0.385528
11 1 0.75 0 0.25
15 1 0.875 0.125 0.375
2 1 0 0.25 0.25
6 1 0.116074 0.395288 0.377076
10 1 0.473478 0.217755 0.224745
16 1 0 0 0.5
20 1 0.125 0.125 0.625
24 1 0.509387 -0.00573669 0.490854
28 1 0.620139 0.129571 0.6133
19 1 0.222856 0.226504 0.462416
23 1 0.864241 0.389862 0.626217
27 1 0.745041 0.267393 0.508558
18 1 0.25 0 0.75
22 1 0.375 0.125 0.875
26 1 0.75 0 0.75
30 1 0.875 0.125 0.875
17 1 0 0.25 0.75
21 1 0.125 0.375 0.875
25 1 0.497832 0.237928 0.744046
29 1 0.628247 0.373319 0.886957
31 1 0 0.5 0
35 1 0.125 0.625 0.125
39 1 0.502721 0.480182 0.0134883
43 1 0.619127 0.614483 0.13997
34 1 0.25 0.75 0
38 1 0.375 0.875 0.125
42 1 0.75 0.75 0
46 1 0.875 0.875 0.125
33 1 0.248348 0.507462 0.239832
37 1 0.384644 0.615948 0.389985
41 1 0.743028 0.500787 0.259844
45 1 0.867634 0.641497 0.364043
32 1 0 0.75 0.25
36 1 0.125 0.875 0.375
40 1 0.494784 0.749832 0.262325
44 1 0.637147 0.853984 0.376195
47 1 0.0219298 0.506821 0.530289
51 1 0.13828 0.641736 0.637988
55 1 0.476121 0.476792 0.535682
50 1 0.250453 0.750157 0.495365
54 1 0.394214 0.858738 0.613588
58 1 0.757267 0.735869 0.50945
59 1 0.875 0.875 0.625
49 1 0.256166 0.49173 0.76099
53 1 0.374238 0.604571 0.898018
57 1 0.752196 0.498167 0.756109
61 1 0.875 0.625 0.875
48 1 0 0.75 0.75
52 1 0.125 0.875 0.875
56 1 0.51063 0.728317 0.758123
60 1 0.625 0.875 0.875
ITEM: TIMESTEP
1100
ITEM: NUMBER OF ATOMS
61
ITEM: BOX BOUNDS pp pp pp
0.0000000000000000e+00 1.0859999999999999e+01
0.0000000000000000e+00 1.0859999999999999e+01
0.0000000000000000e+00 1.0859999999999999e+01
ITEM: ATOMS id type xs ys zs
1 1 0 0 0
5 1 0.125 0.125 0.125
9 1 0.5 0 0
13 1 0.625 0.125 0.125
4 1 0.25 0.25 0
8 1 0.36363 0.37172 0.116058
12 1 0.75 0.25 0
14 1 0.875 0.375 0.125
3 1 0.25 0 0.25
7 1 0.396905 0.123765 0.385811
11 1 0.75 0 0.25
15 1 0.875 0.125 0.375
2 1 0 0.25 0.25
6 1 0.110016 0.39347 0.372569
10 1 0.473913 0.226796 0.225735
16 1 0 0 0.5
20 1 0.125 0.125 0.625
24 1 0.499208 -0.00615457 0.494549
28 1 0.607706 0.135924 0.618578
19 1 0.232272 0.224388 0.464387
23 1 0.867296 0.383568 0.625077
27 1 0.753209 0.256923 0.497614
18 1 0.25 0 0.75
22 1 0.375 0.125 0.875
26 1 0.75 0 0.75
30 1 0.875 0.125 0.875
17 1 0 0.25 0.75
21 1 0.125 0.375 0.875
25 1 0.503497 0.241307 0.741444
29 1 0.624564 0.362473 0.878758
31 1 0 0.5 0
35 1 0.125 0.625 0.125
39 1 0.496975 0.490373 0.013413
43 1 0.629629 0.619396 0.14464
34 1 0.25 0.75 0
38 1 0.375 0.875 0.125
42 1 0.75 0.75 0
46 1 0.875 0.875 0.125
33 1 0.245291 0.496693 0.234982
37 1 0.382907 0.611717 0.377163
41 1 0.74167 0.493171 0.25435
45 1 0.869281 0.634032 0.367479
32 1 0 0.75 0.25
36 1 0.125 0.875 0.375
40 1 0.499678 0.757258 0.265704
44 1 0.639075 0.857771 0.375106
47 1 0.0173063 0.515238 0.514725
51 1 0.137475 0.636954 0.636228
55 1 0.474752 0.477351 0.539304
50 1 0.252667 0.750904 0.50022
54 1 0.398827 0.859204 0.614455
58 1 0.748483 0.726431 0.511201
59 1 0.875 0.875 0.625
49 1 0.252908 0.489675 0.765676
53 1 0.379433 0.597493 0.893097
57 1 0.751022 0.487619 0.766162
61 1 0.875 0.625 0.875
48 1 0 0.75 0.75
52 1 0.125 0.875 0.875
56 1 0.498646 0.738888 0.753686
60 1 0.625 0.875 0.875
ITEM: TIMESTEP
1200
ITEM: NUMBER OF ATOMS
61
ITEM: BOX BOUNDS pp pp pp
0.0000000000000000e+00 1.0859999999999999e+01
0.0000000000000000e+00 1.0859999999999999e+01
0.0000000000000000e+00 1.0859999999999999e+01
ITEM: ATOMS id type xs ys zs
1 1 0 0 0
5 1 0.125 0.125 0.125
9 1 0.5 0 0
13 1 0.625 0.125 0.125
4 1 0.25 0.25 0
8 1 0.352777 0.374631 0.12313
12 1 0.75 0.25 0
14 1 0.875 0.375 0.125
3 1 0.25 0 0.25
7 1 0.390018 0.122116 0.379866
11 1 0.75 0 0.25
15 1 0.875 0.125 0.375
2 1 0 0.25 0.25
6 1 0.109695 0.38611 0.365378
10 1 0.475844 0.239352 0.226543
16 1 0 0 0.5
20 1 0.125 0.125 0.625
24 1 0.499144 -0.0110136 0.500925
28 1 0.607872 0.133196 0.617476
19 1 0.237678 0.226496 0.468678
23 1 0.875935 0.375948 0.624018
27 1 0.758878 0.244494 0.487002
18 1 0.25 0 0.75
22 1 0.375 0.125 0.875
26 1 0.75 0 0.75
30 1 0.875 0.125 0.875
17 1 0 0.25 0.75
21 1 0.125 0.375 0.875
25 1 0.501137 0.252219 0.748314
29 1 0.617449 0.354126 0.870405
31 1 0 0.5 0
35 1 0.125 0.625 0.125
39 1 0.500262 0.498796 0.0139066
43 1 0.63442 0.629431 0.142841
34 1 0.25 0.75 0
38 1 0.375 0.875 0.125
42 1 0.75 0.75 0
46 1 0.875 0.875 0.125
33 1 0.243555 0.487634 0.238088
37 1 0.378179 0.606389 0.366181
41 1 0.7468 0.483177 0.251662
45 1 0.873991 0.618271 0.374923
32 1 0 0.75 0.25
36 1 0.125 0.875 0.375
40 1 0.502432 0.759499 0.263682
44 1 0.641684 0.867429 0.378232
47 1 0.00225955 0.524484 0.495702
51 1 0.138409 0.628458 0.636411
55 1 0.472286 0.480059 0.540104
50 1 0.257381 0.750117 0.503361
54 1 0.393363 0.863792 0.620102
58 1 0.740244 0.721947 0.51463
59 1 0.875 0.875 0.625
49 1 0.250278 0.491299 0.76471
53 1 0.381283 0.601295 0.881971
57 1 0.749732 0.4797 0.77515
61 1 0.875 0.625 0.875
48 1 0 0.75 0.75
52 1 0.125 0.875 0.875
56 1 0.488381 0.747799 0.754021
60 1 0.625 0.875 0.875
ITEM: TIMESTEP
1300
ITEM: NUMBER OF ATOMS
61
ITEM: BOX BOUNDS pp pp pp
0.0000000000000000e+00 1.0859999999999999e+01
0.0000000000000000e+00 1.0859999999999999e+01
0.0000000000000000e+00 1.0859999999999999e+01
ITEM: ATOMS id type xs ys zs
1 1 0 0 0
5 1 0.125 0.125 0.125
9 1 0.5 0 0
13 1 0.625 0.125 0.125
4 1 0.25 0.25 0
8 1 0.35218 0.376155 0.125789
12 1 0.75 0.25 0
14 1 0.875 0.375 0.125
3 1 0.25 0 0.25
7 1 0.380277 0.118027 0.369205
11 1 0.75 0 0.25
15 1 0.875 0.125 0.375
2 1 0 0.25 0.25
6 1 0.11343 0.376112 0.36149
10 1 0.480837 0.251549 0.22943
16 1 0 0 0.5
20 1 0.125 0.125 0.625
24 1 0.506055 -0.0148261 0.504846
28 1 0.616855 0.126541 0.614147
19 1 0.237465 0.233551 0.476092
23 1 0.884908 0.369611 0.620606
27 1 0.758751 0.236601 0.484235
18 1 0.25 0 0.75
22 1 0.375 0.125 0.875
26 1 0.75 0 0.75
30 1 0.875 0.125 0.875
17 1 0 0.25 0.75
21 1 0.125 0.375 0.875
25 1 0.489221 0.259814 0.752976
29 1 0.612169 0.353971 0.872658
31 1 0 0.5 0
35 1 0.125 0.625 0.125
39 1 0.507982 0.501827 0.0152375
43 1 0.635406 0.639412 0.137724
34 1 0.25 0.75 0
38 1 0.375 0.875 0.125
42 1 0.75 0.75 0
46 1 0.875 0.875 0.125
33 1 0.238123 0.487652 0.248572
37 1 0.373183 0.601688 0.36027
41 1 0.753692 0.475858 0.251738
45 1 0.869903 0.608501 0.375413
32 1 0 0.75 0.25
36 1 0.125 0.875 0.375
40 1 0.503085 0.757558 0.258129
44 1 0.642739 0.878175 0.385728
47 1 -0.00728129 0.523246 0.486565
51 1 0.137353 0.619141 0.634857
55 1 0.468364 0.485222 0.537469
50 1 0.262416 0.746381 0.50297
54 1 0.376888 0.87247 0.627901
58 1 0.735433 0.721948 0.516657
59 1 0.875 0.875 0.625
49 1 0.248829 0.494645 0.757998
53 1 0.380121 0.614303 0.869759
57 1 0.75266 0.473863 0.778966
61 1 0.875 0.625 0.875
48 1 0 0.75 0.75
52 1 0.125 0.875 0.875
56 1 0.483746 0.753668 0.760463
60 1 0.625 0.875 0.875
ITEM: TIMESTEP
1400
ITEM: NUMBER OF ATOMS
61
ITEM: BOX BOUNDS pp pp pp
0.0000000000000000e+00 1.0859999999999999e+01
0.0000000000000000e+00 1.0859999999999999e+01
0.0000000000000000e+00 1.0859999999999999e+01
ITEM: ATOMS id type xs ys zs
1 1 0 0 0
5 1 0.125 0.125 0.125
9 1 0.5 0 0
13 1 0.625 0.125 0.125
4 1 0.25 0.25 0
8 1 0.359673 0.378902 0.124007
12 1 0.75 0.25 0
14 1 0.875 0.375 0.125
3 1 0.25 0 0.25
7 1 0.372131 0.114089 0.359272
11 1 0.75 0 0.25
15 1 0.875 0.125 0.375
2 1 0 0.25 0.25
6 1 0.117304 0.366558 0.366838
10 1 0.489708 0.26016 0.236177
16 1 0 0 0.5
20 1 0.125 0.125 0.625
24 1 0.51073 -0.0137001 0.50572
28 1 0.628509 0.121617 0.615152
19 1 0.235606 0.242787 0.485303
23 1 0.889359 0.366107 0.613853
27 1 0.752494 0.237208 0.49157
18 1 0.25 0 0.75
22 1 0.375 0.125 0.875
26 1 0.75 0 0.75
30 1 0.875 0.125 0.875
17 1 0 0.25 0.75
21 1 0.125 0.375 0.875
25 1 0.473406 0.259536 0.748832
29 1 0.610675 0.362131 0.885989
31 1 0 0.5 0
35 1 0.125 0.625 0.125
39 1 0.514033 0.502469 0.0144742
43 1 0.635226 0.642897 0.133075
34 1 0.25 0.75 0
38 1 0.375 0.875 0.125
42 1 0.75 0.75 0
46 1 0.875 0.875 0.125
33 1 0.231319 0.494906 0.256987
37 1 0.371501 0.600762 0.361991
41 1 0.755714 0.474897 0.253435
45 1 0.852078 0.613833 0.364234
32 1 0 0.75 0.25
36 1 0.125 0.875 0.375
40 1 0.502927 0.75424 0.253158
44 1 0.641509 0.883124 0.393754
47 1 -0.000473097 0.505499 0.493757
51 1 0.131437 0.613621 0.628074
55 1 0.46305 0.492411 0.531486
50 1 0.264249 0.740103 0.499276
54 1 0.358685 0.881586 0.635372
58 1 0.735057 0.725542 0.515827
59 1 0.875 0.875 0.625
49 1 0.249625 0.496733 0.749219
53 1 0.376427 0.627535 0.86481
57 1 0.760882 0.469169 0.776988
61 1 0.875 0.625 0.875
48 1 0 0.75 0.75
52 1 0.125 0.875 0.875
56 1 0.485148 0.761293 0.76619
60 1 0.625 0.875 0.875
ITEM: TIMESTEP
1500
ITEM: NUMBER OF ATOMS
61
ITEM: BOX BOUNDS pp pp pp
0.0000000000000000e+00 1.0859999999999999e+01
0.0000000000000000e+00 1.0859999999999999e+01
0.0000000000000000e+00 1.0859999999999999e+01
ITEM: ATOMS id type xs ys zs
1 1 0 0 0
5 1 0.125 0.125 0.125
9 1 0.5 0 0
13 1 0.625 0.125 0.125
4 1 0.25 0.25 0
8 1 0.369835 0.385044 0.122065
12 1 0.75 0.25 0
14 1 0.875 0.375 0.125
3 1 0.25 0 0.25
7 1 0.370468 0.11635 0.357904
11 1 0.75 0 0.25
15 1 0.875 0.125 0.375
2 1 0 0.25 0.25
6 1 0.119397 0.360311 0.378603
10 1 0.500443 0.264043 0.245957
16 1 0 0 0.5
20 1 0.125 0.125 0.625
24 1 0.505827 -0.00595421 0.506615
28 1 0.634554 0.120921 0.624411
19 1 0.23824 0.249247 0.495031
23 1 0.886703 0.363008 0.608117
27 1 0.74583 0.244409 0.502384
18 1 0.25 0 0.75
22 1 0.375 0.125 0.875
26 1 0.75 0 0.75
30 1 0.875 0.125 0.875
17 1 0 0.25 0.75
21 1 0.125 0.375 0.875
25 1 0.465765 0.255362 0.739208
29 1 0.610131 0.371937 0.898093
31 1 0 0.5 0
35 1 0.125 0.625 0.125
39 1 0.5139 0.505371 0.0118283
43 1 0.634918 0.636807 0.131215
34 1 0.25 0.75 0
38 1 0.375 0.875 0.125
42 1 0.75 0.75 0
46 1 0.875 0.875 0.125
33 1 0.227154 0.502496 0.258344
37 1 0.374277 0.605522 0.369186
41 1 0.747695 0.478201 0.252581
45 1 0.840485 0.626043 0.358195
32 1 0 0.75 0.25
36 1 0.125 0.875 0.375
40 1 0.502488 0.751454 0.251528
44 1 0.640071 0.879391 0.397002
47 1 0.00713938 0.485789 0.499922
51 1 0.122812 0.614322 0.617795
55 1 0.457338 0.500211 0.52393
50 1 0.26146 0.734148 0.494786
54 1 0.350301 0.883721 0.63595
58 1 0.738136 0.732288 0.513412
59 1 0.875 0.875 0.625
49 1 0.252506 0.497142 0.741993
53 1 0.370284 0.63404 0.869725
57 1 0.772329 0.464266 0.771054
61 1 0.875 0.625 0.875
48 1 0 0.75 0.75
52 1 0.125 0.875 0.875
56 1 0.48941 0.773026 0.764751
60 1 0.625 0.875 0.875
ITEM: TIMESTEP
1600
ITEM: NUMBER OF ATOMS
61
ITEM: BOX BOUNDS pp pp pp
0.0000000000000000e+00 1.0859999999999999e+01
0.0000000000000000e+00 1.0859999999999999e+01
0.0000000000000000e+00 1.0859999999999999e+01
ITEM: ATOMS id type xs ys zs
1 1 0 0 0
5 1 0.125 0.125 0.125
9 1 0.5 0 0
13 1 0.625 0.125 0.125
4 1 0.25 0.25 0
8 1 0.379203 0.391589 0.123235
12 1 0.75 0.25 0
14 1 0.875 0.375 0.125
3 1 0.25 0 0.25
7 1 0.375846 0.12649 0.366823
11 1 0.75 0 0.25
15 1 0.875 0.125 0.375
2 1 0 0.25 0.25
6 1 0.120936 0.359168 0.38662
10 1 0.510072 0.264213 0.255627
16 1 0 0 0.5
20 1 0.125 0.125 0.625
24 1 0.494058 0.00527174 0.508249
28 1 0.630656 0.124446 0.63786
19 1 0.2485 0.24947 0.505603
23 1 0.878848 0.358561 0.609307
27 1 0.741573 0.252777 0.509424
18 1 0.25 0 0.75
22 1 0.375 0.125 0.875
26 1 0.75 0 0.75
30 1 0.875 0.125 0.875
17 1 0 0.25 0.75
21 1 0.125 0.375 0.875
25 1 0.470705 0.251793 0.730314
29 1 0.61089 0.37498 0.896489
31 1 0 0.5 0
35 1 0.125 0.625 0.125
39 1 0.504819 0.515202 0.00943471
43 1 0.633955 0.624943 0.13184
34 1 0.25 0.75 0
38 1 0.375 0.875 0.125
42 1 0.75 0.75 0
46 1 0.875 0.875 0.125
33 1 0.228401 0.50569 0.257372
37 1 0.378221 0.616109 0.373007
41 1 0.733192 0.482676 0.248118
45 1 0.843646 0.636949 0.361526
32 1 0 0.75 0.25
36 1 0.125 0.875 0.375
40 1 0.502766 0.749411 0.253563
44 1 0.635653 0.872094 0.393914
47 1 0.00530277 0.477108 0.496361
51 1 0.115831 0.618775 0.60941
55 1 0.453813 0.505448 0.519431
50 1 0.253405 0.732055 0.492338
54 1 0.354989 0.876233 0.625299
58 1 0.743882 0.741216 0.512782
59 1 0.875 0.875 0.625
49 1 0.255043 0.498178 0.7374
53 1 0.367048 0.634781 0.878106
57 1 0.782977 0.459341 0.765244
61 1 0.875 0.625 0.875
48 1 0 0.75 0.75
52 1 0.125 0.875 0.875
56 1 0.490043 0.782338 0.757072
60 1 0.625 0.875 0.875
ITEM: TIMESTEP
1700
ITEM: NUMBER OF ATOMS
61
ITEM: BOX BOUNDS pp pp pp
0.0000000000000000e+00 1.0859999999999999e+01