ITEM: TIMESTEP
0
ITEM: NUMBER OF ATOMS
61
ITEM: BOX BOUNDS pp pp pp
0.0000000000000000e+00 1.0859999999999999e+01
0.0000000000000000e+00 1.0859999999999999e+01
0.0000000000000000e+00 1.0859999999999999e+01
ITEM: ATOMS id type xs ys zs
1 1 0 0 0
5 1 0.125 0.125 0.125
9 1 0.5 0 0
13 1 0.625 0.125 0.125
4 1 0.25 0.25 0
8 1 0.375 0.375 0.125
12 1 0.75 0.25 0
14 1 0.875 0.375 0.125
3 1 0.25 0 0.25
7 1 0.375 0.125 0.375
11 1 0.75 0 0.25
15 1 0.875 0.125 0.375
2 1 0 0.25 0.25
6 1 0.125 0.375 0.375
10 1 0.5 0.25 0.25
16 1 0 0 0.5
20 1 0.125 0.125 0.625
24 1 0.5 0 0.5
28 1 0.625 0.125 0.625
19 1 0.25 0.25 0.5
23 1 0.375 0.375 0.625
27 1 0.75 0.25 0.5
31 1 0.875 0.375 0.625
18 1 0.25 0 0.75
22 1 0.375 0.125 0.875
26 1 0.75 0 0.75
30 1 0.875 0.125 0.875
17 1 0 0.25 0.75
21 1 0.125 0.375 0.875
25 1 0.5 0.25 0.75
29 1 0.625 0.375 0.875
32 1 0 0.5 0
36 1 0.125 0.625 0.125
40 1 0.5 0.5 0
44 1 0.625 0.625 0.125
35 1 0.25 0.75 0
39 1 0.375 0.875 0.125
43 1 0.75 0.75 0
47 1 0.875 0.875 0.125
34 1 0.25 0.5 0.25
38 1 0.375 0.625 0.375
42 1 0.75 0.5 0.25
46 1 0.875 0.625 0.375
33 1 0 0.75 0.25
37 1 0.125 0.875 0.375
41 1 0.5 0.75 0.25
45 1 0.625 0.875 0.375
48 1 0 0.5 0.5
52 1 0.125 0.625 0.625
51 1 0.25 0.75 0.5
55 1 0.375 0.875 0.625
56 1 0.875 0.875 0.625
59 1 0.75 0.75 0.5
50 1 0.25 0.5 0.75
54 1 0.375 0.625 0.875
58 1 0.75 0.5 0.75
60 1 0.875 0.625 0.875
49 1 0 0.75 0.75
53 1 0.125 0.875 0.875
57 1 0.5 0.75 0.75
61 1 0.625 0.875 0.875
ITEM: TIMESTEP
100
ITEM: NUMBER OF ATOMS
61
ITEM: BOX BOUNDS pp pp pp
0.0000000000000000e+00 1.0859999999999999e+01
0.0000000000000000e+00 1.0859999999999999e+01
0.0000000000000000e+00 1.0859999999999999e+01
ITEM: ATOMS id type xs ys zs
1 1 0 0 0
5 1 0.125 0.125 0.125
9 1 0.5 0 0
13 1 0.625 0.125 0.125
4 1 0.25 0.25 0
8 1 0.375665 0.373423 0.12005
12 1 0.75 0.25 0
14 1 0.875 0.375 0.125
3 1 0.25 0 0.25
7 1 0.372072 0.11978 0.386053
11 1 0.75 0 0.25
15 1 0.875 0.125 0.375
2 1 0 0.25 0.25
6 1 0.120363 0.371012 0.369967
10 1 0.488326 0.249179 0.253991
16 1 0 0 0.5
20 1 0.125 0.125 0.625
24 1 0.508468 -0.0114406 0.498545
28 1 0.627961 0.120706 0.601302
19 1 0.24298 0.249543 0.48388
23 1 0.363266 0.376741 0.624014
27 1 0.759598 0.252077 0.502687
31 1 0.872159 0.390221 0.618405
18 1 0.25 0 0.75
22 1 0.375 0.125 0.875
26 1 0.75 0 0.75
30 1 0.875 0.125 0.875
17 1 0 0.25 0.75
21 1 0.125 0.375 0.875
25 1 0.491646 0.249622 0.754264
29 1 0.62384 0.376933 0.879302
32 1 0 0.5 0
36 1 0.125 0.625 0.125
40 1 0.503973 0.499477 -0.00575938
44 1 0.612728 0.633634 0.134636
35 1 0.25 0.75 0
39 1 0.375 0.875 0.125
43 1 0.75 0.75 0
47 1 0.875 0.875 0.125
34 1 0.245413 0.484665 0.238915
38 1 0.38043 0.632925 0.373626
42 1 0.755433 0.488342 0.260212
46 1 0.87617 0.625946 0.372778
33 1 0 0.75 0.25
37 1 0.125 0.875 0.375
41 1 0.507505 0.753891 0.249932
45 1 0.63926 0.863785 0.380283
48 1 0.0150935 0.503942 0.509065
52 1 0.129121 0.619846 0.619092
51 1 0.255022 0.751497 0.511863
55 1 0.37303 0.869346 0.632038
56 1 0.875 0.875 0.625
59 1 0.751083 0.755506 0.488839
50 1 0.254553 0.505111 0.760649
54 1 0.372206 0.633866 0.887837
58 1 0.739285 0.503031 0.750083
60 1 0.875 0.625 0.875
49 1 0 0.75 0.75
53 1 0.125 0.875 0.875
57 1 0.495681 0.757349 0.743409
61 1 0.625 0.875 0.875
ITEM: TIMESTEP
200
ITEM: NUMBER OF ATOMS
61
ITEM: BOX BOUNDS pp pp pp
0.0000000000000000e+00 1.0859999999999999e+01
0.0000000000000000e+00 1.0859999999999999e+01
0.0000000000000000e+00 1.0859999999999999e+01
ITEM: ATOMS id type xs ys zs
1 1 0 0 0
5 1 0.125 0.125 0.125
9 1 0.5 0 0
13 1 0.625 0.125 0.125
4 1 0.25 0.25 0
8 1 0.377832 0.370493 0.114205
12 1 0.75 0.25 0
14 1 0.875 0.375 0.125
3 1 0.25 0 0.25
7 1 0.371577 0.112751 0.391995
11 1 0.75 0 0.25
15 1 0.875 0.125 0.375
2 1 0 0.25 0.25
6 1 0.116555 0.370151 0.365034
10 1 0.479122 0.246203 0.256555
16 1 0 0 0.5
20 1 0.125 0.125 0.625
24 1 0.512401 -0.0246258 0.496309
28 1 0.629804 0.120448 0.589075
19 1 0.237297 0.249136 0.476517
23 1 0.35232 0.376421 0.623824
27 1 0.768755 0.254382 0.502501
31 1 0.870043 0.402711 0.616785
18 1 0.25 0 0.75
22 1 0.375 0.125 0.875
26 1 0.75 0 0.75
30 1 0.875 0.125 0.875
17 1 0 0.25 0.75
21 1 0.125 0.375 0.875
25 1 0.488759 0.249562 0.751934
29 1 0.623269 0.376084 0.879417
32 1 0 0.5 0
36 1 0.125 0.625 0.125
40 1 0.504295 0.50202 -0.00508042
44 1 0.611902 0.631782 0.138374
35 1 0.25 0.75 0
39 1 0.375 0.875 0.125
43 1 0.75 0.75 0
47 1 0.875 0.875 0.125
34 1 0.243345 0.477753 0.233542
38 1 0.380921 0.637313 0.369861
42 1 0.75689 0.481673 0.267187
46 1 0.879196 0.624721 0.373219
33 1 0 0.75 0.25
37 1 0.125 0.875 0.375
41 1 0.5085 0.76186 0.254994
45 1 0.643556 0.863265 0.375596
48 1 0.0220998 0.503771 0.507919
52 1 0.137796 0.620913 0.623659
51 1 0.257842 0.751078 0.516131
55 1 0.371325 0.871042 0.635391
56 1 0.875 0.875 0.625
59 1 0.76157 0.752938 0.487446
50 1 0.256647 0.509438 0.768789
54 1 0.37528 0.639705 0.89288
58 1 0.731533 0.506963 0.750468
60 1 0.875 0.625 0.875
49 1 0 0.75 0.75
53 1 0.125 0.875 0.875
57 1 0.49447 0.759401 0.744472
61 1 0.625 0.875 0.875
ITEM: TIMESTEP
300
ITEM: NUMBER OF ATOMS
61
ITEM: BOX BOUNDS pp pp pp
0.0000000000000000e+00 1.0859999999999999e+01
0.0000000000000000e+00 1.0859999999999999e+01
0.0000000000000000e+00 1.0859999999999999e+01
ITEM: ATOMS id type xs ys zs
1 1 0 0 0
5 1 0.125 0.125 0.125
9 1 0.5 0 0
13 1 0.625 0.125 0.125
4 1 0.25 0.25 0
8 1 0.381294 0.367031 0.109055
12 1 0.75 0.25 0
14 1 0.875 0.375 0.125
3 1 0.25 0 0.25
7 1 0.3733 0.103854 0.393582
11 1 0.75 0 0.25
15 1 0.875 0.125 0.375
2 1 0 0.25 0.25
6 1 0.114843 0.373476 0.361194
10 1 0.473772 0.240846 0.257304
16 1 0 0 0.5
20 1 0.125 0.125 0.625
24 1 0.511068 -0.036843 0.49472
28 1 0.62824 0.125355 0.590774
19 1 0.234456 0.247941 0.478826
23 1 0.342613 0.373792 0.624866
27 1 0.776137 0.257657 0.500655
31 1 0.869273 0.411067 0.620598
18 1 0.25 0 0.75
22 1 0.375 0.125 0.875
26 1 0.75 0 0.75
30 1 0.875 0.125 0.875
17 1 0 0.25 0.75
21 1 0.125 0.375 0.875
25 1 0.493338 0.248671 0.740579
29 1 0.622106 0.372653 0.875269
32 1 0 0.5 0
36 1 0.125 0.625 0.125
40 1 0.501996 0.506541 0.00167668
44 1 0.622427 0.620868 0.13855
35 1 0.25 0.75 0
39 1 0.375 0.875 0.125
43 1 0.75 0.75 0
47 1 0.875 0.875 0.125
34 1 0.246316 0.482814 0.235676
38 1 0.373686 0.63511 0.362831
42 1 0.753673 0.481465 0.2699
46 1 0.885461 0.619697 0.375508
33 1 0 0.75 0.25
37 1 0.125 0.875 0.375
41 1 0.503139 0.769889 0.260316
45 1 0.642558 0.870598 0.365559
48 1 0.0221099 0.501669 0.499008
52 1 0.147207 0.626418 0.636886
51 1 0.258314 0.749656 0.511041
55 1 0.370922 0.878931 0.634031
56 1 0.875 0.875 0.625
59 1 0.776226 0.74563 0.493914
50 1 0.256885 0.512123 0.773745
54 1 0.384924 0.640968 0.888705
58 1 0.727552 0.512248 0.751238
60 1 0.875 0.625 0.875
49 1 0 0.75 0.75
53 1 0.125 0.875 0.875
57 1 0.497145 0.755977 0.753352
61 1 0.625 0.875 0.875
ITEM: TIMESTEP
400
ITEM: NUMBER OF ATOMS
61
ITEM: BOX BOUNDS pp pp pp
0.0000000000000000e+00 1.0859999999999999e+01
0.0000000000000000e+00 1.0859999999999999e+01
0.0000000000000000e+00 1.0859999999999999e+01
ITEM: ATOMS id type xs ys zs
1 1 0 0 0
5 1 0.125 0.125 0.125
9 1 0.5 0 0
13 1 0.625 0.125 0.125
4 1 0.25 0.25 0
8 1 0.383803 0.364969 0.108493
12 1 0.75 0.25 0
14 1 0.875 0.375 0.125
3 1 0.25 0 0.25
7 1 0.375085 0.095673 0.393231
11 1 0.75 0 0.25
15 1 0.875 0.125 0.375
2 1 0 0.25 0.25
6 1 0.118142 0.378154 0.359208
10 1 0.472557 0.233554 0.256038
16 1 0 0 0.5
20 1 0.125 0.125 0.625
24 1 0.507882 -0.0423296 0.495197
28 1 0.625684 0.130595 0.599293
19 1 0.234893 0.245554 0.486669
23 1 0.335103 0.369435 0.627989
27 1 0.779738 0.261963 0.499856
31 1 0.871206 0.413688 0.627828
18 1 0.25 0 0.75
22 1 0.375 0.125 0.875
26 1 0.75 0 0.75
30 1 0.875 0.125 0.875
17 1 0 0.25 0.75
21 1 0.125 0.375 0.875
25 1 0.499424 0.248143 0.726594
29 1 0.618923 0.369233 0.869752
32 1 0 0.5 0
36 1 0.125 0.625 0.125
40 1 0.501679 0.509587 0.00913252
44 1 0.636196 0.610523 0.139491
35 1 0.25 0.75 0
39 1 0.375 0.875 0.125
43 1 0.75 0.75 0
47 1 0.875 0.875 0.125
34 1 0.252567 0.493596 0.239937
38 1 0.36346 0.630322 0.356187
42 1 0.749635 0.485294 0.269447
46 1 0.893652 0.61128 0.376978
33 1 0 0.75 0.25
37 1 0.125 0.875 0.375
41 1 0.494978 0.770244 0.259395
45 1 0.644905 0.87532 0.361255
48 1 0.0200717 0.502799 0.49211
52 1 0.150464 0.632465 0.649045
51 1 0.257582 0.749527 0.500559
55 1 0.373645 0.883992 0.630557
56 1 0.875 0.875 0.625
59 1 0.784735 0.740256 0.500339
50 1 0.257537 0.512149 0.776492
54 1 0.394661 0.637731 0.881575
58 1 0.72673 0.518178 0.752866
60 1 0.875 0.625 0.875
49 1 0 0.75 0.75
53 1 0.125 0.875 0.875
57 1 0.501711 0.753033 0.762215
61 1 0.625 0.875 0.875
ITEM: TIMESTEP
500
ITEM: NUMBER OF ATOMS
61
ITEM: BOX BOUNDS pp pp pp
0.0000000000000000e+00 1.0859999999999999e+01
0.0000000000000000e+00 1.0859999999999999e+01
0.0000000000000000e+00 1.0859999999999999e+01
ITEM: ATOMS id type xs ys zs
1 1 0 0 0
5 1 0.125 0.125 0.125
9 1 0.5 0 0
13 1 0.625 0.125 0.125
4 1 0.25 0.25 0
8 1 0.38413 0.364981 0.114438
12 1 0.75 0.25 0
14 1 0.875 0.375 0.125
3 1 0.25 0 0.25
7 1 0.375239 0.0914785 0.392597
11 1 0.75 0 0.25
15 1 0.875 0.125 0.375
2 1 0 0.25 0.25
6 1 0.12732 0.380986 0.359692
10 1 0.475209 0.225054 0.252737
16 1 0 0 0.5
20 1 0.125 0.125 0.625
24 1 0.508033 -0.0385796 0.495675
28 1 0.625611 0.132732 0.60875
19 1 0.237788 0.242239 0.494239
23 1 0.331453 0.364328 0.633991
27 1 0.778753 0.266722 0.501499
31 1 0.876294 0.411304 0.636013
18 1 0.25 0 0.75
22 1 0.375 0.125 0.875
26 1 0.75 0 0.75
30 1 0.875 0.125 0.875
17 1 0 0.25 0.75
21 1 0.125 0.375 0.875
25 1 0.501824 0.249422 0.715926
29 1 0.614722 0.367681 0.865159
32 1 0 0.5 0
36 1 0.125 0.625 0.125
40 1 0.505984 0.508668 0.0135787
44 1 0.64603 0.608356 0.141117
35 1 0.25 0.75 0
39 1 0.375 0.875 0.125
43 1 0.75 0.75 0
47 1 0.875 0.875 0.125
34 1 0.258496 0.503149 0.241054
38 1 0.356048 0.626898 0.352914
42 1 0.74883 0.489202 0.268022
46 1 0.897599 0.605198 0.374224
33 1 0 0.75 0.25
37 1 0.125 0.875 0.375
41 1 0.49029 0.760778 0.25384
45 1 0.647948 0.870186 0.366283
48 1 0.0211351 0.505722 0.494827
52 1 0.14713 0.638213 0.652965
51 1 0.255263 0.751146 0.490043
55 1 0.376974 0.880175 0.628958
56 1 0.875 0.875 0.625
59 1 0.784984 0.736473 0.50204
50 1 0.259278 0.509168 0.777653
54 1 0.39778 0.629907 0.88
58 1 0.727882 0.523093 0.755475
60 1 0.875 0.625 0.875
49 1 0 0.75 0.75
53 1 0.125 0.875 0.875
57 1 0.508003 0.75478 0.76273
61 1 0.625 0.875 0.875
ITEM: TIMESTEP
600
ITEM: NUMBER OF ATOMS
61
ITEM: BOX BOUNDS pp pp pp
0.0000000000000000e+00 1.0859999999999999e+01
0.0000000000000000e+00 1.0859999999999999e+01
0.0000000000000000e+00 1.0859999999999999e+01
ITEM: ATOMS id type xs ys zs
1 1 0 0 0
5 1 0.125 0.125 0.125
9 1 0.5 0 0
13 1 0.625 0.125 0.125
4 1 0.25 0.25 0
8 1 0.382363 0.367164 0.12567
12 1 0.75 0.25 0
14 1 0.875 0.375 0.125
3 1 0.25 0 0.25
7 1 0.373753 0.0934707 0.391777
11 1 0.75 0 0.25
15 1 0.875 0.125 0.375
2 1 0 0.25 0.25
6 1 0.138821 0.381065 0.36327
10 1 0.480416 0.216699 0.247967
16 1 0 0 0.5
20 1 0.125 0.125 0.625
24 1 0.513258 -0.0270039 0.49659
28 1 0.631648 0.128883 0.614239
19 1 0.242653 0.238603 0.497425
23 1 0.33232 0.35937 0.642544
27 1 0.773917 0.270421 0.505375
31 1 0.883562 0.405295 0.64354
18 1 0.25 0 0.75
22 1 0.375 0.125 0.875
26 1 0.75 0 0.75
30 1 0.875 0.125 0.875
17 1 0 0.25 0.75
21 1 0.125 0.375 0.875
25 1 0.497264 0.254006 0.713693
29 1 0.611446 0.368896 0.862403
32 1 0 0.5 0
36 1 0.125 0.625 0.125
40 1 0.513938 0.502901 0.0152656
44 1 0.647987 0.617412 0.140171
35 1 0.25 0.75 0
39 1 0.375 0.875 0.125
43 1 0.75 0.75 0
47 1 0.875 0.875 0.125
34 1 0.258817 0.504178 0.234492
38 1 0.357476 0.629444 0.357434
42 1 0.753442 0.488929 0.268061
46 1 0.895507 0.605064 0.367754
33 1 0 0.75 0.25
37 1 0.125 0.875 0.375
41 1 0.493354 0.743749 0.24666
45 1 0.648382 0.856278 0.376645
48 1 0.0271222 0.507733 0.507557
52 1 0.141729 0.641151 0.647111
51 1 0.251502 0.753635 0.484429
55 1 0.378814 0.868271 0.629846
56 1 0.875 0.875 0.625
59 1 0.779117 0.732929 0.498458
50 1 0.259724 0.505252 0.775488
54 1 0.396058 0.621772 0.884066
58 1 0.730064 0.525145 0.758164
60 1 0.875 0.625 0.875
49 1 0 0.75 0.75
53 1 0.125 0.875 0.875
57 1 0.512353 0.757183 0.754791
61 1 0.625 0.875 0.875
ITEM: TIMESTEP
700
ITEM: NUMBER OF ATOMS
61
ITEM: BOX BOUNDS pp pp pp
0.0000000000000000e+00 1.0859999999999999e+01
0.0000000000000000e+00 1.0859999999999999e+01
0.0000000000000000e+00 1.0859999999999999e+01
ITEM: ATOMS id type xs ys zs
1 1 0 0 0
5 1 0.125 0.125 0.125
9 1 0.5 0 0
13 1 0.625 0.125 0.125
4 1 0.25 0.25 0
8 1 0.380557 0.369696 0.13685
12 1 0.75 0.25 0
14 1 0.875 0.375 0.125
3 1 0.25 0 0.25
7 1 0.372062 0.101271 0.389943
11 1 0.75 0 0.25
15 1 0.875 0.125 0.375
2 1 0 0.25 0.25
6 1 0.147877 0.37871 0.369548
10 1 0.48512 0.210972 0.243571
16 1 0 0 0.5
20 1 0.125 0.125 0.625
24 1 0.520756 -0.0125365 0.500729
28 1 0.64068 0.122551 0.616433
19 1 0.249368 0.235834 0.496327
23 1 0.334737 0.355063 0.650146
27 1 0.767079 0.271669 0.510446
31 1 0.890553 0.397428 0.648912
18 1 0.25 0 0.75
22 1 0.375 0.125 0.875
26 1 0.75 0 0.75
30 1 0.875 0.125 0.875
17 1 0 0.25 0.75
21 1 0.125 0.375 0.875
25 1 0.49203 0.256598 0.720395
29 1 0.61103 0.372677 0.86177
32 1 0 0.5 0
36 1 0.125 0.625 0.125
40 1 0.522228 0.493132 0.0157058
44 1 0.645295 0.629855 0.136928
35 1 0.25 0.75 0
39 1 0.375 0.875 0.125
43 1 0.75 0.75 0
47 1 0.875 0.875 0.125
34 1 0.255085 0.50023 0.227531
38 1 0.365207 0.632829 0.365837
42 1 0.759785 0.48577 0.266367
46 1 0.89346 0.608579 0.364405
33 1 0 0.75 0.25
37 1 0.125 0.875 0.375
41 1 0.501874 0.726997 0.240437
45 1 0.64449 0.840951 0.384797
48 1 0.0329123 0.508741 0.52221
52 1 0.138747 0.640465 0.635521
51 1 0.247797 0.7553 0.486686
55 1 0.378862 0.85604 0.629078
56 1 0.875 0.875 0.625
59 1 0.771191 0.729118 0.493607
50 1 0.25676 0.503691 0.76946
54 1 0.393824 0.617691 0.889529
58 1 0.732942 0.522986 0.759395
60 1 0.875 0.625 0.875
49 1 0 0.75 0.75
53 1 0.125 0.875 0.875
57 1 0.512853 0.754039 0.744613
61 1 0.625 0.875 0.875
ITEM: TIMESTEP
800
ITEM: NUMBER OF ATOMS
61
ITEM: BOX BOUNDS pp pp pp
0.0000000000000000e+00 1.0859999999999999e+01
0.0000000000000000e+00 1.0859999999999999e+01
0.0000000000000000e+00 1.0859999999999999e+01
ITEM: ATOMS id type xs ys zs
1 1 0 0 0
5 1 0.125 0.125 0.125
9 1 0.5 0 0
13 1 0.625 0.125 0.125
4 1 0.25 0.25 0
8 1 0.382353 0.368885 0.14205
12 1 0.75 0.25 0
14 1 0.875 0.375 0.125
3 1 0.25 0 0.25
7 1 0.373046 0.110571 0.386474
11 1 0.75 0 0.25
15 1 0.875 0.125 0.375
2 1 0 0.25 0.25
6 1 0.151419 0.375488 0.377205
10 1 0.486088 0.210261 0.24185
16 1 0 0 0.5
20 1 0.125 0.125 0.625
24 1 0.526557 -0.00129376 0.505776
28 1 0.647853 0.119559 0.618515
19 1 0.255981 0.235658 0.495005
23 1 0.334834 0.351736 0.65278
27 1 0.760599 0.270286 0.515508
31 1 0.894056 0.390752 0.65025
18 1 0.25 0 0.75
22 1 0.375 0.125 0.875
26 1 0.75 0 0.75
30 1 0.875 0.125 0.875
17 1 0 0.25 0.75
21 1 0.125 0.375 0.875
25 1 0.493978 0.251629 0.734745
29 1 0.61505 0.376839 0.862574
32 1 0 0.5 0
36 1 0.125 0.625 0.125
40 1 0.527283 0.483197 0.0176011
44 1 0.645036 0.634022 0.131069
35 1 0.25 0.75 0
39 1 0.375 0.875 0.125
43 1 0.75 0.75 0
47 1 0.875 0.875 0.125
34 1 0.250565 0.498452 0.229208
38 1 0.373065 0.630998 0.373353
42 1 0.763868 0.483125 0.260721
46 1 0.89441 0.613149 0.368015
33 1 0 0.75 0.25
37 1 0.125 0.875 0.375
41 1 0.508192 0.719578 0.239227
45 1 0.633326 0.83232 0.384691
48 1 0.032921 0.504924 0.530059
52 1 0.139984 0.639987 0.626364
51 1 0.246661 0.754824 0.494473
55 1 0.376203 0.852033 0.624422
56 1 0.875 0.875 0.625
59 1 0.766569 0.723509 0.493729
50 1 0.250928 0.506859 0.761672
54 1 0.392491 0.617088 0.893037
58 1 0.73688 0.516283 0.757749
60 1 0.875 0.625 0.875
49 1 0 0.75 0.75
53 1 0.125 0.875 0.875
57 1 0.512574 0.743891 0.738658
61 1 0.625 0.875 0.875
ITEM: TIMESTEP
900
ITEM: NUMBER OF ATOMS
61
ITEM: BOX BOUNDS pp pp pp
0.0000000000000000e+00 1.0859999999999999e+01
0.0000000000000000e+00 1.0859999999999999e+01
0.0000000000000000e+00 1.0859999999999999e+01
ITEM: ATOMS id type xs ys zs
1 1 0 0 0
5 1 0.125 0.125 0.125
9 1 0.5 0 0
13 1 0.625 0.125 0.125
4 1 0.25 0.25 0
8 1 0.386554 0.364986 0.139853
12 1 0.75 0.25 0
14 1 0.875 0.375 0.125
3 1 0.25 0 0.25
7 1 0.378214 0.115769 0.382196
11 1 0.75 0 0.25
15 1 0.875 0.125 0.375
2 1 0 0.25 0.25
6 1 0.147572 0.373154 0.384338
10 1 0.483961 0.215632 0.242806
16 1 0 0 0.5
20 1 0.125 0.125 0.625
24 1 0.525689 0.00231828 0.507012
28 1 0.650592 0.123164 0.623132
19 1 0.259511 0.238491 0.496812
23 1 0.33539 0.348425 0.652389
27 1 0.756993 0.267392 0.51884
31 1 0.891502 0.387233 0.646754
18 1 0.25 0 0.75
22 1 0.375 0.125 0.875
26 1 0.75 0 0.75
30 1 0.875 0.125 0.875
17 1 0 0.25 0.75
21 1 0.125 0.375 0.875
25 1 0.501464 0.241662 0.752772
29 1 0.623705 0.378235 0.864492
32 1 0 0.5 0
36 1 0.125 0.625 0.125
40 1 0.527025 0.476774 0.0221525
44 1 0.649596 0.624292 0.122941
35 1 0.25 0.75 0
39 1 0.375 0.875 0.125
43 1 0.75 0.75 0
47 1 0.875 0.875 0.125
34 1 0.248417 0.499312 0.240599
38 1 0.378013 0.624347 0.379767
42 1 0.764732 0.485166 0.253667
46 1 0.897199 0.614675 0.376848
33 1 0 0.75 0.25
37 1 0.125 0.875 0.375
41 1 0.506156 0.724129 0.244011
45 1 0.61948 0.833984 0.378096
48 1 0.0258717 0.495207 0.526309
52 1 0.142029 0.641119 0.626415
51 1 0.249408 0.752526 0.499548
55 1 0.375094 0.859093 0.619479
56 1 0.875 0.875 0.625
59 1 0.76469 0.718281 0.499977
50 1 0.24515 0.513455 0.755058
54 1 0.392343 0.618004 0.89324
58 1 0.743145 0.506546 0.75253
60 1 0.875 0.625 0.875
49 1 0 0.75 0.75
53 1 0.125 0.875 0.875
57 1 0.511839 0.73019 0.738351
61 1 0.625 0.875 0.875
ITEM: TIMESTEP
1000
ITEM: NUMBER OF ATOMS
61
ITEM: BOX BOUNDS pp pp pp
0.0000000000000000e+00 1.0859999999999999e+01
0.0000000000000000e+00 1.0859999999999999e+01
0.0000000000000000e+00 1.0859999999999999e+01
ITEM: ATOMS id type xs ys zs
1 1 0 0 0
5 1 0.125 0.125 0.125
9 1 0.5 0 0
13 1 0.625 0.125 0.125
4 1 0.25 0.25 0
8 1 0.386506 0.362379 0.132393
12 1 0.75 0.25 0
14 1 0.875 0.375 0.125
3 1 0.25 0 0.25
7 1 0.384095 0.115097 0.38034
11 1 0.75 0 0.25
15 1 0.875 0.125 0.375
2 1 0 0.25 0.25
6 1 0.13642 0.371375 0.388544
10 1 0.484276 0.225908 0.24432
16 1 0 0 0.5
20 1 0.125 0.125 0.625
24 1 0.518652 -0.000496001 0.50348
28 1 0.645437 0.13071 0.630263
19 1 0.259133 0.241262 0.499981
23 1 0.340736 0.345875 0.654712
27 1 0.757843 0.264188 0.518153
31 1 0.883752 0.384185 0.638901
18 1 0.25 0 0.75
22 1 0.375 0.125 0.875
26 1 0.75 0 0.75
30 1 0.875 0.125 0.875
17 1 0 0.25 0.75
21 1 0.125 0.375 0.875
25 1 0.510876 0.233053 0.767903
29 1 0.634104 0.375096 0.869229
32 1 0 0.5 0
36 1 0.125 0.625 0.125
40 1 0.522553 0.47509 0.0251096
44 1 0.651108 0.607247 0.119391
35 1 0.25 0.75 0
39 1 0.375 0.875 0.125
43 1 0.75 0.75 0
47 1 0.875 0.875 0.125
34 1 0.251187 0.499955 0.257713
38 1 0.379826 0.614668 0.384978
42 1 0.763565 0.493441 0.249352
46 1 0.899463 0.611645 0.386351
33 1 0 0.75 0.25
37 1 0.125 0.875 0.375
41 1 0.499048 0.732834 0.246583
45 1 0.61278 0.845829 0.372945
48 1 0.0175975 0.487066 0.515184
52 1 0.137148 0.639878 0.631718
51 1 0.255531 0.750256 0.497552
55 1 0.379435 0.873872 0.618782
56 1 0.875 0.875 0.625
59 1 0.761096 0.717774 0.508624
50 1 0.243798 0.51796 0.753043
54 1 0.392654 0.618679 0.890749
58 1 0.752083 0.497615 0.74544
60 1 0.875 0.625 0.875
49 1 0 0.75 0.75
53 1 0.125 0.875 0.875
57 1 0.509243 0.718555 0.74162
61 1 0.625 0.875 0.875
ITEM: TIMESTEP
1100
ITEM: NUMBER OF ATOMS
61
ITEM: BOX BOUNDS pp pp pp
0.0000000000000000e+00 1.0859999999999999e+01
0.0000000000000000e+00 1.0859999999999999e+01
0.0000000000000000e+00 1.0859999999999999e+01
ITEM: ATOMS id type xs ys zs
1 1 0 0 0
5 1 0.125 0.125 0.125
9 1 0.5 0 0
13 1 0.625 0.125 0.125
4 1 0.25 0.25 0
8 1 0.377946 0.362973 0.124423
12 1 0.75 0.25 0
14 1 0.875 0.375 0.125
3 1 0.25 0 0.25
7 1 0.386259 0.111979 0.380884
11 1 0.75 0 0.25
15 1 0.875 0.125 0.375
2 1 0 0.25 0.25
6 1 0.123141 0.367454 0.387162
10 1 0.490592 0.238087 0.246245
16 1 0 0 0.5
20 1 0.125 0.125 0.625
24 1 0.510227 -0.00483039 0.498523
28 1 0.633051 0.136743 0.636509
19 1 0.255598 0.241682 0.501963
23 1 0.351645 0.345079 0.662138
27 1 0.760986 0.259044 0.512191
31 1 0.877034 0.377148 0.627245
18 1 0.25 0 0.75
22 1 0.375 0.125 0.875
26 1 0.75 0 0.75
30 1 0.875 0.125 0.875
17 1 0 0.25 0.75
21 1 0.125 0.375 0.875
25 1 0.520781 0.230569 0.776327
29 1 0.642319 0.369868 0.876671
32 1 0 0.5 0
36 1 0.125 0.625 0.125
40 1 0.515614 0.477446 0.019946
44 1 0.646341 0.595165 0.120657
35 1 0.25 0.75 0
39 1 0.375 0.875 0.125
43 1 0.75 0.75 0
47 1 0.875 0.875 0.125
34 1 0.255881 0.497927 0.273203
38 1 0.381367 0.606252 0.388832
42 1 0.764696 0.503473 0.251438
46 1 0.89787 0.60847 0.392817
33 1 0 0.75 0.25
37 1 0.125 0.875 0.375
41 1 0.490493 0.738892 0.244612
45 1 0.616283 0.863294 0.372946
48 1 0.0102765 0.484769 0.504789
52 1 0.126478 0.636316 0.633322
51 1 0.262441 0.749331 0.49415
55 1 0.386779 0.88803 0.62251
56 1 0.875 0.875 0.625
59 1 0.755169 0.722927 0.516082
50 1 0.248596 0.516124 0.757374
54 1 0.391391 0.617595 0.888327
58 1 0.76042 0.493585 0.741519
60 1 0.875 0.625 0.875
49 1 0 0.75 0.75
53 1 0.125 0.875 0.875
57 1 0.505952 0.713732 0.745416
61 1 0.625 0.875 0.875
ITEM: TIMESTEP
1200
ITEM: NUMBER OF ATOMS
61
ITEM: BOX BOUNDS pp pp pp
0.0000000000000000e+00 1.0859999999999999e+01
0.0000000000000000e+00 1.0859999999999999e+01
0.0000000000000000e+00 1.0859999999999999e+01
ITEM: ATOMS id type xs ys zs
1 1 0 0 0
5 1 0.125 0.125 0.125
9 1 0.5 0 0
13 1 0.625 0.125 0.125
4 1 0.25 0.25 0
8 1 0.365049 0.366896 0.12136
12 1 0.75 0.25 0
14 1 0.875 0.375 0.125
3 1 0.25 0 0.25
7 1 0.38301 0.112445 0.379472
11 1 0.75 0 0.25
15 1 0.875 0.125 0.375
2 1 0 0.25 0.25
6 1 0.114788 0.360775 0.380759
10 1 0.500346 0.249622 0.249252
16 1 0 0 0.5
20 1 0.125 0.125 0.625
24 1 0.505141 -0.00512315 0.495841
28 1 0.621821 0.136253 0.635269
19 1 0.251568 0.240999 0.503405
23 1 0.365672 0.344795 0.67173
27 1 0.76046 0.248823 0.501494
31 1 0.876858 0.367479 0.615673
18 1 0.25 0 0.75
22 1 0.375 0.125 0.875
26 1 0.75 0 0.75
30 1 0.875 0.125 0.875
17 1 0 0.25 0.75
21 1 0.125 0.375 0.875
25 1 0.526399 0.236187 0.780955
29 1 0.646178 0.36857 0.883292
32 1 0 0.5 0
36 1 0.125 0.625 0.125
40 1 0.505879 0.48135 0.00520661
44 1 0.634884 0.597207 0.124219
35 1 0.25 0.75 0
39 1 0.375 0.875 0.125
43 1 0.75 0.75 0
47 1 0.875 0.875 0.125
34 1 0.256268 0.490876 0.279885
38 1 0.386589 0.603212 0.393017
42 1 0.77066 0.50966 0.260041
46 1 0.889348 0.612243 0.393592
33 1 0 0.75 0.25
37 1 0.125 0.875 0.375
41 1 0.487187 0.740084 0.242236
45 1 0.627259 0.877962 0.374973
48 1 0.00420202 0.486608 0.502311
52 1 0.117887 0.629109 0.62819
51 1 0.267555 0.750497 0.494902
55 1 0.392604 0.892026 0.631201
56 1 0.875 0.875 0.625
59 1 0.748056 0.733042 0.519486
50 1 0.255316 0.509154 0.764343
54 1 0.386952 0.614806 0.888835
58 1 0.764953 0.494189 0.74346
60 1 0.875 0.625 0.875
49 1 0 0.75 0.75
53 1 0.125 0.875 0.875
57 1 0.503699 0.719527 0.746645
61 1 0.625 0.875 0.875
ITEM: TIMESTEP
1300
ITEM: NUMBER OF ATOMS
61
ITEM: BOX BOUNDS pp pp pp
0.0000000000000000e+00 1.0859999999999999e+01
0.0000000000000000e+00 1.0859999999999999e+01
0.0000000000000000e+00 1.0859999999999999e+01
ITEM: ATOMS id type xs ys zs
1 1 0 0 0
5 1 0.125 0.125 0.125
9 1 0.5 0 0
13 1 0.625 0.125 0.125
4 1 0.25 0.25 0
8 1 0.355951 0.374245 0.124422
12 1 0.75 0.25 0
14 1 0.875 0.375 0.125
3 1 0.25 0 0.25
7 1 0.376316 0.119116 0.374611
11 1 0.75 0 0.25
15 1 0.875 0.125 0.375
2 1 0 0.25 0.25
6 1 0.113652 0.355935 0.376123
10 1 0.508596 0.259743 0.252408
16 1 0 0 0.5
20 1 0.125 0.125 0.625
24 1 0.503952 0.000214297 0.496188
28 1 0.61629 0.128674 0.62562
19 1 0.250101 0.241268 0.504745
23 1 0.378835 0.34436 0.679146
27 1 0.753323 0.235858 0.489887
31 1 0.880441 0.359392 0.609594
18 1 0.25 0 0.75
22 1 0.375 0.125 0.875
26 1 0.75 0 0.75
30 1 0.875 0.125 0.875
17 1 0 0.25 0.75
21 1 0.125 0.375 0.875
25 1 0.525221 0.245656 0.783637
29 1 0.645675 0.375982 0.885635
32 1 0 0.5 0
36 1 0.125 0.625 0.125
40 1 0.495742 0.485097 -0.0104862
44 1 0.621257 0.608386 0.128891
35 1 0.25 0.75 0
39 1 0.375 0.875 0.125
43 1 0.75 0.75 0
47 1 0.875 0.875 0.125
34 1 0.251559 0.482059 0.276754
38 1 0.394367 0.605018 0.396692
42 1 0.774692 0.510635 0.266452
46 1 0.877421 0.625648 0.392068
33 1 0 0.75 0.25
37 1 0.125 0.875 0.375
41 1 0.490937 0.738747 0.244259
45 1 0.638665 0.884299 0.376988
48 1 8.29315e-05 0.489732 0.503985
52 1 0.116235 0.619278 0.620071
51 1 0.270167 0.753092 0.500416
55 1 0.394968 0.885332 0.642418
56 1 0.875 0.875 0.625
59 1 0.741663 0.746188 0.518177
50 1 0.259383 0.499477 0.768304
54 1 0.380163 0.614977 0.889494
58 1 0.766394 0.494631 0.748339
60 1 0.875 0.625 0.875
49 1 0 0.75 0.75
53 1 0.125 0.875 0.875
57 1 0.502831 0.733105 0.747669
61 1 0.625 0.875 0.875
ITEM: TIMESTEP
1400
ITEM: NUMBER OF ATOMS
61
ITEM: BOX BOUNDS pp pp pp
0.0000000000000000e+00 1.0859999999999999e+01
0.0000000000000000e+00 1.0859999999999999e+01
0.0000000000000000e+00 1.0859999999999999e+01
ITEM: ATOMS id type xs ys zs
1 1 0 0 0
5 1 0.125 0.125 0.125
9 1 0.5 0 0
13 1 0.625 0.125 0.125
4 1 0.25 0.25 0
8 1 0.355363 0.381678 0.129695
12 1 0.75 0.25 0
14 1 0.875 0.375 0.125
3 1 0.25 0 0.25
7 1 0.370566 0.130119 0.368894
11 1 0.75 0 0.25
15 1 0.875 0.125 0.375
2 1 0 0.25 0.25
6 1 0.118035 0.356442 0.378819
10 1 0.512676 0.267925 0.254161
16 1 0 0 0.5
20 1 0.125 0.125 0.625
24 1 0.50271 0.00597545 0.497202
28 1 0.616096 0.119741 0.615559
19 1 0.252542 0.244115 0.506609
23 1 0.38513 0.345434 0.678615
27 1 0.740926 0.227007 0.483101
31 1 0.881358 0.352879 0.608884
18 1 0.25 0 0.75
22 1 0.375 0.125 0.875
26 1 0.75 0 0.75
30 1 0.875 0.125 0.875
17 1 0 0.25 0.75
21 1 0.125 0.375 0.875
25 1 0.523214 0.250082 0.783803
29 1 0.643691 0.389879 0.883722
32 1 0 0.5 0
36 1 0.125 0.625 0.125
40 1 0.488217 0.487615 -0.0167339
44 1 0.610119 0.621513 0.132083
35 1 0.25 0.75 0
39 1 0.375 0.875 0.125
43 1 0.75 0.75 0
47 1 0.875 0.875 0.125
34 1 0.245214 0.479375 0.268718
38 1 0.399856 0.608841 0.397666
42 1 0.771452 0.506399 0.264843
46 1 0.868778 0.645189 0.392784
33 1 0 0.75 0.25
37 1 0.125 0.875 0.375
41 1 0.499993 0.739826 0.253069
45 1 0.642281 0.881091 0.379172
48 1 -0.00403323 0.49346 0.50153
52 1 0.122739 0.61165 0.615518
51 1 0.270471 0.755074 0.508457
55 1 0.393499 0.87559 0.649526
56 1 0.875 0.875 0.625
59 1 0.736731 0.760405 0.513305
50 1 0.259525 0.489492 0.766393
54 1 0.371577 0.623144 0.884674
58 1 0.766562 0.492562 0.75225
60 1 0.875 0.625 0.875
49 1 0 0.75 0.75
53 1 0.125 0.875 0.875
57 1 0.503652 0.748069 0.752736
61 1 0.625 0.875 0.875
ITEM: TIMESTEP
1500
ITEM: NUMBER OF ATOMS
61
ITEM: BOX BOUNDS pp pp pp
0.0000000000000000e+00 1.0859999999999999e+01
0.0000000000000000e+00 1.0859999999999999e+01
0.0000000000000000e+00 1.0859999999999999e+01
ITEM: ATOMS id type xs ys zs
1 1 0 0 0
5 1 0.125 0.125 0.125
9 1 0.5 0 0
13 1 0.625 0.125 0.125
4 1 0.25 0.25 0
8 1 0.364301 0.384108 0.132416
12 1 0.75 0.25 0
14 1 0.875 0.375 0.125
3 1 0.25 0 0.25
7 1 0.369116 0.14203 0.36426
11 1 0.75 0 0.25
15 1 0.875 0.125 0.375
2 1 0 0.25 0.25
6 1 0.123668 0.361459 0.386701
10 1 0.512543 0.273566 0.253502
16 1 0 0 0.5
20 1 0.125 0.125 0.625
24 1 0.49668 0.00554554 0.495007
28 1 0.621403 0.11503 0.61374
19 1 0.257817 0.249542 0.510667
23 1 0.382797 0.348578 0.666643
27 1 0.726787 0.226005 0.481448
31 1 0.876962 0.348612 0.610002
18 1 0.25 0 0.75
22 1 0.375 0.125 0.875
26 1 0.75 0 0.75
30 1 0.875 0.125 0.875
17 1 0 0.25 0.75
21 1 0.125 0.375 0.875
25 1 0.525847 0.24655 0.782709
29 1 0.641441 0.402178 0.881462
32 1 0 0.5 0
36 1 0.125 0.625 0.125
40 1 0.481487 0.491628 -0.0126307
44 1 0.606753 0.629235 0.1301
35 1 0.25 0.75 0
39 1 0.375 0.875 0.125
43 1 0.75 0.75 0
47 1 0.875 0.875 0.125
34 1 0.23917 0.488153 0.261847
38 1 0.399518 0.612973 0.395669
42 1 0.762435 0.502526 0.258181
46 1 0.864635 0.661944 0.392701
33 1 0 0.75 0.25
37 1 0.125 0.875 0.375
41 1 0.507741 0.74759 0.267687
45 1 0.63466 0.876273 0.378631
48 1 -0.00933913 0.497448 0.49429
52 1 0.135077 0.60816 0.617292
51 1 0.268436 0.754521 0.515523
55 1 0.385842 0.87163 0.646596
56 1 0.875 0.875 0.625
59 1 0.734492 0.771793 0.510654
50 1 0.256614 0.483193 0.759581
54 1 0.364615 0.635982 0.873365
58 1 0.768114 0.48974 0.751497
60 1 0.875 0.625 0.875
49 1 0 0.75 0.75
53 1 0.125 0.875 0.875
57 1 0.507286 0.757287 0.763969
61 1 0.625 0.875 0.875
ITEM: TIMESTEP
1600
ITEM: NUMBER OF ATOMS
61
ITEM: BOX BOUNDS pp pp pp
0.0000000000000000e+00 1.0859999999999999e+01
0.0000000000000000e+00 1.0859999999999999e+01
0.0000000000000000e+00 1.0859999999999999e+01
ITEM: ATOMS id type xs ys zs
1 1 0 0 0
5 1 0.125 0.125 0.125
9 1 0.5 0 0
13 1 0.625 0.125 0.125
4 1 0.25 0.25 0
8 1 0.376611 0.381286 0.133304
12 1 0.75 0.25 0
14 1 0.875 0.375 0.125
3 1 0.25 0 0.25
7 1 0.371969 0.151884 0.361032
11 1 0.75 0 0.25
15 1 0.875 0.125 0.375
2 1 0 0.25 0.25
6 1 0.127604 0.369468 0.393827
10 1 0.510229 0.275775 0.2507
16 1 0 0 0.5
20 1 0.125 0.125 0.625
24 1 0.486349 0.000371227 0.490795
28 1 0.627256 0.112763 0.621404
19 1 0.262811 0.254831 0.516332
23 1 0.379753 0.35142 0.648574
27 1 0.716792 0.232738 0.480647
31 1 0.868057 0.347929 0.609736
18 1 0.25 0 0.75
22 1 0.375 0.125 0.875
26 1 0.75 0 0.75
30 1 0.875 0.125 0.875
17 1 0 0.25 0.75
21 1 0.125 0.375 0.875
25 1 0.530107 0.239873 0.778211
29 1 0.637207 0.407501 0.882211
32 1 0 0.5 0
36 1 0.125 0.625 0.125
40 1 0.474928 0.501387 -0.00419575
44 1 0.610239 0.631392 0.124309
35 1 0.25 0.75 0
39 1 0.375 0.875 0.125
43 1 0.75 0.75 0
47 1 0.875 0.875 0.125
34 1 0.23666 0.505204 0.257635
38 1 0.392371 0.616883 0.391588
42 1 0.75029 0.503441 0.25007
46 1 0.863619 0.669354 0.38894
33 1 0 0.75 0.25
37 1 0.125 0.875 0.375
41 1 0.509565 0.757344 0.280254
45 1 0.619889 0.878921 0.374883
48 1 -0.0149224 0.502814 0.487507
52 1 0.147088 0.607456 0.622912
51 1 0.263465 0.750093 0.517443
55 1 0.37595 0.873973 0.636936
56 1 0.875 0.875 0.625
59 1 0.734538 0.777167 0.514261
50 1 0.252631 0.483058 0.750793
54 1 0.361539 0.645298 0.859721
58 1 0.772816 0.488394 0.744704
60 1 0.875 0.625 0.875
49 1 0 0.75 0.75
53 1 0.125 0.875 0.875
57 1 0.508823 0.759438 0.773214
61 1 0.625 0.875 0.875
ITEM: TIMESTEP
1700
ITEM: NUMBER OF ATOMS
61
ITEM: BOX BOUNDS pp pp pp
0.0000000000000000e+00 1.0859999999999999e+01