ITEM: TIMESTEP
0
ITEM: NUMBER OF ATOMS
61
ITEM: BOX BOUNDS pp pp pp
0.0000000000000000e+00 1.0859999999999999e+01
0.0000000000000000e+00 1.0859999999999999e+01
0.0000000000000000e+00 1.0859999999999999e+01
ITEM: ATOMS id type xs ys zs
1 1 0 0 0
5 1 0.125 0.125 0.125
9 1 0.5 0 0
13 1 0.625 0.125 0.125
4 1 0.25 0.25 0
8 1 0.375 0.375 0.125
12 1 0.75 0.25 0
16 1 0.875 0.375 0.125
3 1 0.25 0 0.25
7 1 0.375 0.125 0.375
11 1 0.75 0 0.25
15 1 0.875 0.125 0.375
2 1 0 0.25 0.25
6 1 0.125 0.375 0.375
10 1 0.5 0.25 0.25
14 1 0.625 0.375 0.375
17 1 0 0 0.5
21 1 0.125 0.125 0.625
25 1 0.5 0 0.5
29 1 0.625 0.125 0.625
24 1 0.375 0.375 0.625
20 1 0.875 0.375 0.625
28 1 0.75 0.25 0.5
19 1 0.25 0 0.75
23 1 0.375 0.125 0.875
27 1 0.75 0 0.75
31 1 0.875 0.125 0.875
18 1 0 0.25 0.75
22 1 0.125 0.375 0.875
26 1 0.5 0.25 0.75
30 1 0.625 0.375 0.875
32 1 0 0.5 0
36 1 0.125 0.625 0.125
40 1 0.5 0.5 0
44 1 0.625 0.625 0.125
35 1 0.25 0.75 0
39 1 0.375 0.875 0.125
43 1 0.75 0.75 0
47 1 0.875 0.875 0.125
34 1 0.25 0.5 0.25
38 1 0.375 0.625 0.375
42 1 0.75 0.5 0.25
46 1 0.875 0.625 0.375
33 1 0 0.75 0.25
37 1 0.125 0.875 0.375
41 1 0.5 0.75 0.25
45 1 0.625 0.875 0.375
48 1 0 0.5 0.5
52 1 0.125 0.625 0.625
51 1 0.25 0.75 0.5
55 1 0.375 0.875 0.625
59 1 0.75 0.75 0.5
60 1 0.875 0.875 0.625
50 1 0.25 0.5 0.75
54 1 0.375 0.625 0.875
56 1 0.875 0.625 0.875
58 1 0.75 0.5 0.75
49 1 0 0.75 0.75
53 1 0.125 0.875 0.875
57 1 0.5 0.75 0.75
61 1 0.625 0.875 0.875
ITEM: TIMESTEP
100
ITEM: NUMBER OF ATOMS
61
ITEM: BOX BOUNDS pp pp pp
0.0000000000000000e+00 1.0859999999999999e+01
0.0000000000000000e+00 1.0859999999999999e+01
0.0000000000000000e+00 1.0859999999999999e+01
ITEM: ATOMS id type xs ys zs
1 1 0 0 0
5 1 0.125 0.125 0.125
9 1 0.5 0 0
13 1 0.625 0.125 0.125
4 1 0.25 0.25 0
8 1 0.376151 0.374614 0.117309
12 1 0.75 0.25 0
16 1 0.875 0.375 0.125
3 1 0.25 0 0.25
7 1 0.371745 0.120177 0.383472
11 1 0.75 0 0.25
15 1 0.875 0.125 0.375
2 1 0 0.25 0.25
6 1 0.120295 0.370516 0.367084
10 1 0.48897 0.250974 0.252399
14 1 0.628025 0.384141 0.374504
17 1 0 0 0.5
21 1 0.125 0.125 0.625
25 1 0.4917 -0.00136194 0.502482
29 1 0.62412 0.126993 0.626573
24 1 0.383654 0.363092 0.622396
20 1 0.864137 0.382796 0.629925
28 1 0.752013 0.246342 0.473259
19 1 0.25 0 0.75
23 1 0.375 0.125 0.875
27 1 0.75 0 0.75
31 1 0.875 0.125 0.875
18 1 0 0.25 0.75
22 1 0.125 0.375 0.875
26 1 0.508533 0.249491 0.752531
30 1 0.62112 0.376025 0.88263
32 1 0 0.5 0
36 1 0.125 0.625 0.125
40 1 0.504604 0.501488 -0.00747845
44 1 0.61228 0.635888 0.134074
35 1 0.25 0.75 0
39 1 0.375 0.875 0.125
43 1 0.75 0.75 0
47 1 0.875 0.875 0.125
34 1 0.24531 0.484206 0.236433
38 1 0.380258 0.633469 0.372206
42 1 0.755896 0.489827 0.259266
46 1 0.87591 0.627264 0.372462
33 1 0 0.75 0.25
37 1 0.125 0.875 0.375
41 1 0.507452 0.755037 0.249402
45 1 0.638482 0.864522 0.381107
48 1 0.0150208 0.50244 0.50743
52 1 0.128352 0.618257 0.616904
51 1 0.254287 0.750957 0.511299
55 1 0.371115 0.868249 0.632124
59 1 0.75018 0.756167 0.488415
60 1 0.875 0.875 0.625
50 1 0.254444 0.503105 0.758504
54 1 0.370457 0.632466 0.887058
56 1 0.875 0.625 0.875
58 1 0.737355 0.50257 0.749543
49 1 0 0.75 0.75
53 1 0.125 0.875 0.875
57 1 0.494061 0.756592 0.742545
61 1 0.625 0.875 0.875
ITEM: TIMESTEP
200
ITEM: NUMBER OF ATOMS
61
ITEM: BOX BOUNDS pp pp pp
0.0000000000000000e+00 1.0859999999999999e+01
0.0000000000000000e+00 1.0859999999999999e+01
0.0000000000000000e+00 1.0859999999999999e+01
ITEM: ATOMS id type xs ys zs
1 1 0 0 0
5 1 0.125 0.125 0.125
9 1 0.5 0 0
13 1 0.625 0.125 0.125
4 1 0.25 0.25 0
8 1 0.37871 0.372685 0.108895
12 1 0.75 0.25 0
16 1 0.875 0.375 0.125
3 1 0.25 0 0.25
7 1 0.366999 0.117282 0.388372
11 1 0.75 0 0.25
15 1 0.875 0.125 0.375
2 1 0 0.25 0.25
6 1 0.11798 0.368322 0.362104
10 1 0.482388 0.252156 0.255735
14 1 0.624757 0.388449 0.374581
17 1 0 0 0.5
21 1 0.125 0.125 0.625
25 1 0.488557 -0.00616106 0.506813
29 1 0.625915 0.127716 0.624181
24 1 0.390078 0.354606 0.622395
20 1 0.85628 0.386679 0.629941
28 1 0.748717 0.248296 0.460147
19 1 0.25 0 0.75
23 1 0.375 0.125 0.875
27 1 0.75 0 0.75
31 1 0.875 0.125 0.875
18 1 0 0.25 0.75
22 1 0.125 0.375 0.875
26 1 0.513452 0.248817 0.756119
30 1 0.621868 0.375587 0.885244
32 1 0 0.5 0
36 1 0.125 0.625 0.125
40 1 0.504479 0.506524 -0.00748029
44 1 0.611566 0.635658 0.136704
35 1 0.25 0.75 0
39 1 0.375 0.875 0.125
43 1 0.75 0.75 0
47 1 0.875 0.875 0.125
34 1 0.243502 0.476785 0.229688
38 1 0.380184 0.637981 0.366749
42 1 0.760506 0.488692 0.261492
46 1 0.878943 0.627063 0.372933
33 1 0 0.75 0.25
37 1 0.125 0.875 0.375
41 1 0.508203 0.764518 0.254547
45 1 0.639018 0.868206 0.378456
48 1 0.0194948 0.498437 0.50709
52 1 0.136784 0.618119 0.620117
51 1 0.256247 0.749839 0.514718
55 1 0.366544 0.86936 0.635914
59 1 0.760505 0.753664 0.487603
60 1 0.875 0.875 0.625
50 1 0.259132 0.503505 0.762691
54 1 0.37162 0.637279 0.890941
56 1 0.875 0.625 0.875
58 1 0.726031 0.506115 0.751657
49 1 0 0.75 0.75
53 1 0.125 0.875 0.875
57 1 0.491738 0.757947 0.743167
61 1 0.625 0.875 0.875
ITEM: TIMESTEP
300
ITEM: NUMBER OF ATOMS
61
ITEM: BOX BOUNDS pp pp pp
0.0000000000000000e+00 1.0859999999999999e+01
0.0000000000000000e+00 1.0859999999999999e+01
0.0000000000000000e+00 1.0859999999999999e+01
ITEM: ATOMS id type xs ys zs
1 1 0 0 0
5 1 0.125 0.125 0.125
9 1 0.5 0 0
13 1 0.625 0.125 0.125
4 1 0.25 0.25 0
8 1 0.383037 0.369711 0.101955
12 1 0.75 0.25 0
16 1 0.875 0.375 0.125
3 1 0.25 0 0.25
7 1 0.361581 0.116729 0.389932
11 1 0.75 0 0.25
15 1 0.875 0.125 0.375
2 1 0 0.25 0.25
6 1 0.119935 0.369156 0.361914
10 1 0.481308 0.253179 0.25954
14 1 0.613263 0.389817 0.374338
17 1 0 0 0.5
21 1 0.125 0.125 0.625
25 1 0.490815 -0.0120267 0.511572
29 1 0.629836 0.127077 0.617662
24 1 0.392764 0.351569 0.625358
20 1 0.851305 0.38538 0.62403
28 1 0.740339 0.256451 0.465079
19 1 0.25 0 0.75
23 1 0.375 0.125 0.875
27 1 0.75 0 0.75
31 1 0.875 0.125 0.875
18 1 0 0.25 0.75
22 1 0.125 0.375 0.875
26 1 0.514494 0.246382 0.760597
30 1 0.625775 0.374444 0.883949
32 1 0 0.5 0
36 1 0.125 0.625 0.125
40 1 0.501152 0.513846 -0.000459188
44 1 0.62189 0.626596 0.135279
35 1 0.25 0.75 0
39 1 0.375 0.875 0.125
43 1 0.75 0.75 0
47 1 0.875 0.875 0.125
34 1 0.247029 0.481159 0.2319
38 1 0.371983 0.635448 0.357731
42 1 0.762386 0.496929 0.256631
46 1 0.885886 0.622702 0.375767
33 1 0 0.75 0.25
37 1 0.125 0.875 0.375
41 1 0.502994 0.774103 0.260524
45 1 0.631864 0.88231 0.373918
48 1 0.0145648 0.490767 0.501507
52 1 0.146015 0.62157 0.633094
51 1 0.255599 0.747584 0.50836
55 1 0.363544 0.876891 0.635686
59 1 0.77405 0.747318 0.494511
60 1 0.875 0.875 0.625
50 1 0.264989 0.499863 0.761491
54 1 0.379103 0.637883 0.884662
56 1 0.875 0.625 0.875
58 1 0.718244 0.511033 0.755461
49 1 0 0.75 0.75
53 1 0.125 0.875 0.875
57 1 0.49361 0.754243 0.752114
61 1 0.625 0.875 0.875
ITEM: TIMESTEP
400
ITEM: NUMBER OF ATOMS
61
ITEM: BOX BOUNDS pp pp pp
0.0000000000000000e+00 1.0859999999999999e+01
0.0000000000000000e+00 1.0859999999999999e+01
0.0000000000000000e+00 1.0859999999999999e+01
ITEM: ATOMS id type xs ys zs
1 1 0 0 0
5 1 0.125 0.125 0.125
9 1 0.5 0 0
13 1 0.625 0.125 0.125
4 1 0.25 0.25 0
8 1 0.387168 0.367322 0.10078
12 1 0.75 0.25 0
16 1 0.875 0.375 0.125
3 1 0.25 0 0.25
7 1 0.358341 0.117558 0.390246
11 1 0.75 0 0.25
15 1 0.875 0.125 0.375
2 1 0 0.25 0.25
6 1 0.126181 0.371529 0.365045
10 1 0.484193 0.253225 0.262354
14 1 0.598373 0.392061 0.371332
17 1 0 0 0.5
21 1 0.125 0.125 0.625
25 1 0.496225 -0.013032 0.513024
29 1 0.63288 0.125767 0.610718
24 1 0.392261 0.353349 0.630418
20 1 0.848927 0.381442 0.61673
28 1 0.732762 0.264631 0.480864
19 1 0.25 0 0.75
23 1 0.375 0.125 0.875
27 1 0.75 0 0.75
31 1 0.875 0.125 0.875
18 1 0 0.25 0.75
22 1 0.125 0.375 0.875
26 1 0.513557 0.241232 0.763805
30 1 0.627708 0.374606 0.882788
32 1 0 0.5 0
36 1 0.125 0.625 0.125
40 1 0.500167 0.518683 0.00797956
44 1 0.634886 0.619574 0.134523
35 1 0.25 0.75 0
39 1 0.375 0.875 0.125
43 1 0.75 0.75 0
47 1 0.875 0.875 0.125
34 1 0.253456 0.490533 0.237359
38 1 0.360975 0.630781 0.349115
42 1 0.759818 0.50724 0.25039
46 1 0.895655 0.614952 0.378756
33 1 0 0.75 0.25
37 1 0.125 0.875 0.375
41 1 0.496137 0.775725 0.26124
45 1 0.62649 0.895291 0.377318
48 1 0.00698562 0.485753 0.49816
52 1 0.149159 0.623895 0.646178
51 1 0.253696 0.746417 0.496875
55 1 0.365673 0.880512 0.633018
59 1 0.780095 0.743879 0.500989
60 1 0.875 0.875 0.625
50 1 0.272399 0.49232 0.757238
54 1 0.386375 0.634342 0.874307
56 1 0.875 0.625 0.875
58 1 0.716723 0.517064 0.75829
49 1 0 0.75 0.75
53 1 0.125 0.875 0.875
57 1 0.497605 0.751886 0.761751
61 1 0.625 0.875 0.875
ITEM: TIMESTEP
500
ITEM: NUMBER OF ATOMS
61
ITEM: BOX BOUNDS pp pp pp
0.0000000000000000e+00 1.0859999999999999e+01
0.0000000000000000e+00 1.0859999999999999e+01
0.0000000000000000e+00 1.0859999999999999e+01
ITEM: ATOMS id type xs ys zs
1 1 0 0 0
5 1 0.125 0.125 0.125
9 1 0.5 0 0
13 1 0.625 0.125 0.125
4 1 0.25 0.25 0
8 1 0.389587 0.366021 0.107071
12 1 0.75 0.25 0
16 1 0.875 0.375 0.125
3 1 0.25 0 0.25
7 1 0.359047 0.119208 0.390345
11 1 0.75 0 0.25
15 1 0.875 0.125 0.375
2 1 0 0.25 0.25
6 1 0.134489 0.37361 0.369201
10 1 0.488167 0.250092 0.261929
14 1 0.586757 0.396592 0.367884
17 1 0 0 0.5
21 1 0.125 0.125 0.625
25 1 0.500552 -0.00569965 0.511065
29 1 0.632989 0.123469 0.608397
24 1 0.390493 0.357472 0.636057
20 1 0.849986 0.378595 0.613832
28 1 0.727279 0.270481 0.497212
19 1 0.25 0 0.75
23 1 0.375 0.125 0.875
27 1 0.75 0 0.75
31 1 0.875 0.125 0.875
18 1 0 0.25 0.75
22 1 0.125 0.375 0.875
26 1 0.512908 0.235279 0.763631
30 1 0.625771 0.376288 0.883324
32 1 0 0.5 0
36 1 0.125 0.625 0.125
40 1 0.5033 0.518906 0.0133581
44 1 0.641709 0.624006 0.133714
35 1 0.25 0.75 0
39 1 0.375 0.875 0.125
43 1 0.75 0.75 0
47 1 0.875 0.875 0.125
34 1 0.25848 0.497667 0.240561
38 1 0.353265 0.628879 0.344014
42 1 0.757325 0.510858 0.248913
46 1 0.901844 0.609444 0.379154
33 1 0 0.75 0.25
37 1 0.125 0.875 0.375
41 1 0.493624 0.767677 0.258298
45 1 0.627346 0.896709 0.387626
48 1 0.00438622 0.484668 0.503093
52 1 0.14495 0.623613 0.651412
51 1 0.250599 0.74626 0.486429
55 1 0.37215 0.875262 0.629506
59 1 0.774549 0.744298 0.500605
60 1 0.875 0.875 0.625
50 1 0.279569 0.482369 0.753015
54 1 0.386984 0.626084 0.86899
56 1 0.875 0.625 0.875
58 1 0.722005 0.522788 0.758535
49 1 0 0.75 0.75
53 1 0.125 0.875 0.875
57 1 0.503905 0.755199 0.763659
61 1 0.625 0.875 0.875
ITEM: TIMESTEP
600
ITEM: NUMBER OF ATOMS
61
ITEM: BOX BOUNDS pp pp pp
0.0000000000000000e+00 1.0859999999999999e+01
0.0000000000000000e+00 1.0859999999999999e+01
0.0000000000000000e+00 1.0859999999999999e+01
ITEM: ATOMS id type xs ys zs
1 1 0 0 0
5 1 0.125 0.125 0.125
9 1 0.5 0 0
13 1 0.625 0.125 0.125
4 1 0.25 0.25 0
8 1 0.389262 0.366545 0.119195
12 1 0.75 0.25 0
16 1 0.875 0.375 0.125
3 1 0.25 0 0.25
7 1 0.363492 0.121567 0.389525
11 1 0.75 0 0.25
15 1 0.875 0.125 0.375
2 1 0 0.25 0.25
6 1 0.141748 0.374755 0.373385
10 1 0.491865 0.242293 0.258154
14 1 0.582501 0.403614 0.366564
17 1 0 0 0.5
21 1 0.125 0.125 0.625
25 1 0.49904 0.0075031 0.507401
29 1 0.630669 0.120049 0.614494
24 1 0.391577 0.358971 0.638608
20 1 0.8563 0.38112 0.621473
28 1 0.722203 0.272075 0.503564
19 1 0.25 0 0.75
23 1 0.375 0.125 0.875
27 1 0.75 0 0.75
31 1 0.875 0.125 0.875
18 1 0 0.25 0.75
22 1 0.125 0.375 0.875
26 1 0.513727 0.231457 0.759863
30 1 0.621299 0.379586 0.884209
32 1 0 0.5 0
36 1 0.125 0.625 0.125
40 1 0.508668 0.514945 0.0148468
44 1 0.638883 0.639534 0.13194
35 1 0.25 0.75 0
39 1 0.375 0.875 0.125
43 1 0.75 0.75 0
47 1 0.875 0.875 0.125
34 1 0.256778 0.495168 0.236453
38 1 0.354537 0.634803 0.346642
42 1 0.757316 0.504941 0.254303
46 1 0.900859 0.609829 0.376785
33 1 0 0.75 0.25
37 1 0.125 0.875 0.375
41 1 0.498227 0.753954 0.253849
45 1 0.633026 0.8857 0.396321
48 1 0.00990947 0.485658 0.515365
52 1 0.13696 0.61961 0.647515
51 1 0.246643 0.745987 0.482255
55 1 0.380377 0.865215 0.625614
59 1 0.762427 0.745884 0.494977
60 1 0.875 0.875 0.625
50 1 0.280416 0.475694 0.752354
54 1 0.383875 0.616947 0.869858
56 1 0.875 0.625 0.875
58 1 0.732339 0.524893 0.756038
49 1 0 0.75 0.75
53 1 0.125 0.875 0.875
57 1 0.508568 0.759343 0.756934
61 1 0.625 0.875 0.875
ITEM: TIMESTEP
700
ITEM: NUMBER OF ATOMS
61
ITEM: BOX BOUNDS pp pp pp
0.0000000000000000e+00 1.0859999999999999e+01
0.0000000000000000e+00 1.0859999999999999e+01
0.0000000000000000e+00 1.0859999999999999e+01
ITEM: ATOMS id type xs ys zs
1 1 0 0 0
5 1 0.125 0.125 0.125
9 1 0.5 0 0
13 1 0.625 0.125 0.125
4 1 0.25 0.25 0
8 1 0.386295 0.368796 0.132444
12 1 0.75 0.25 0
16 1 0.875 0.375 0.125
3 1 0.25 0 0.25
7 1 0.36894 0.125272 0.385516
11 1 0.75 0 0.25
15 1 0.875 0.125 0.375
2 1 0 0.25 0.25
6 1 0.145209 0.374401 0.377356
10 1 0.49661 0.2332 0.254046
14 1 0.584491 0.409707 0.36675
17 1 0 0 0.5
21 1 0.125 0.125 0.625
25 1 0.49359 0.0166919 0.503038
29 1 0.628292 0.117915 0.626896
24 1 0.397291 0.355795 0.635837
20 1 0.86449 0.38591 0.636233
28 1 0.721326 0.270068 0.499868
19 1 0.25 0 0.75
23 1 0.375 0.125 0.875
27 1 0.75 0 0.75
31 1 0.875 0.125 0.875
18 1 0 0.25 0.75
22 1 0.125 0.375 0.875
26 1 0.515191 0.231686 0.755418
30 1 0.618089 0.383685 0.882905
32 1 0 0.5 0
36 1 0.125 0.625 0.125
40 1 0.513326 0.508199 0.0142128
44 1 0.632053 0.651971 0.132706
35 1 0.25 0.75 0
39 1 0.375 0.875 0.125
43 1 0.75 0.75 0
47 1 0.875 0.875 0.125
34 1 0.251116 0.48845 0.230723
38 1 0.360868 0.641377 0.352829
42 1 0.755671 0.496467 0.260584
46 1 0.894608 0.613213 0.375926
33 1 0 0.75 0.25
37 1 0.125 0.875 0.375
41 1 0.507571 0.743826 0.249381
45 1 0.636465 0.871398 0.398406
48 1 0.0193813 0.488248 0.52642
52 1 0.130154 0.613994 0.638292
51 1 0.242889 0.745079 0.487339
55 1 0.386066 0.857724 0.619928
59 1 0.751864 0.745525 0.489769
60 1 0.875 0.875 0.625
50 1 0.27142 0.475932 0.756324
54 1 0.382341 0.612151 0.874387
56 1 0.875 0.625 0.875
58 1 0.7441 0.521224 0.752058
49 1 0 0.75 0.75
53 1 0.125 0.875 0.875
57 1 0.509264 0.757141 0.746842
61 1 0.625 0.875 0.875
ITEM: TIMESTEP
800
ITEM: NUMBER OF ATOMS
61
ITEM: BOX BOUNDS pp pp pp
0.0000000000000000e+00 1.0859999999999999e+01
0.0000000000000000e+00 1.0859999999999999e+01
0.0000000000000000e+00 1.0859999999999999e+01
ITEM: ATOMS id type xs ys zs
1 1 0 0 0
5 1 0.125 0.125 0.125
9 1 0.5 0 0
13 1 0.625 0.125 0.125
4 1 0.25 0.25 0
8 1 0.384045 0.370102 0.140165
12 1 0.75 0.25 0
16 1 0.875 0.375 0.125
3 1 0.25 0 0.25
7 1 0.371186 0.130321 0.376921
11 1 0.75 0 0.25
15 1 0.875 0.125 0.375
2 1 0 0.25 0.25
6 1 0.14357 0.372344 0.381379
10 1 0.50201 0.229442 0.252349
14 1 0.590058 0.410645 0.36777
17 1 0 0 0.5
21 1 0.125 0.125 0.625
25 1 0.490925 0.0159439 0.501619
29 1 0.626956 0.118499 0.636889
24 1 0.402342 0.353042 0.630497
20 1 0.87225 0.387628 0.64907
28 1 0.72627 0.266625 0.493465
19 1 0.25 0 0.75
23 1 0.375 0.125 0.875
27 1 0.75 0 0.75
31 1 0.875 0.125 0.875
18 1 0 0.25 0.75
22 1 0.125 0.375 0.875
26 1 0.514876 0.236819 0.755505
30 1 0.62043 0.386494 0.877351
32 1 0 0.5 0
36 1 0.125 0.625 0.125
40 1 0.514434 0.501165 0.0152326
44 1 0.630918 0.647714 0.131209
35 1 0.25 0.75 0
39 1 0.375 0.875 0.125
43 1 0.75 0.75 0
47 1 0.875 0.875 0.125
34 1 0.244418 0.48547 0.231287
38 1 0.366162 0.641502 0.357952
42 1 0.751688 0.490971 0.263138
46 1 0.885852 0.616755 0.379308
33 1 0 0.75 0.25
37 1 0.125 0.875 0.375
41 1 0.512718 0.747875 0.252354
45 1 0.628712 0.86523 0.389056
48 1 0.0246216 0.488271 0.528151
52 1 0.129641 0.612972 0.630935
51 1 0.240727 0.743716 0.499844
55 1 0.385492 0.857215 0.611114
59 1 0.751351 0.738149 0.492074
60 1 0.875 0.875 0.625
50 1 0.258683 0.481019 0.759272
54 1 0.383085 0.612728 0.880372
56 1 0.875 0.625 0.875
58 1 0.753315 0.512965 0.749063
49 1 0 0.75 0.75
53 1 0.125 0.875 0.875
57 1 0.508904 0.747122 0.739745
61 1 0.625 0.875 0.875
ITEM: TIMESTEP
900
ITEM: NUMBER OF ATOMS
61
ITEM: BOX BOUNDS pp pp pp
0.0000000000000000e+00 1.0859999999999999e+01
0.0000000000000000e+00 1.0859999999999999e+01
0.0000000000000000e+00 1.0859999999999999e+01
ITEM: ATOMS id type xs ys zs
1 1 0 0 0
5 1 0.125 0.125 0.125
9 1 0.5 0 0
13 1 0.625 0.125 0.125
4 1 0.25 0.25 0
8 1 0.384527 0.368614 0.139857
12 1 0.75 0.25 0
16 1 0.875 0.375 0.125
3 1 0.25 0 0.25
7 1 0.369654 0.133538 0.367288
11 1 0.75 0 0.25
15 1 0.875 0.125 0.375
2 1 0 0.25 0.25
6 1 0.137159 0.368339 0.385007
10 1 0.507182 0.235322 0.253734
14 1 0.596267 0.403929 0.370604
17 1 0 0 0.5
21 1 0.125 0.125 0.625
25 1 0.493147 0.00811004 0.502237
29 1 0.626008 0.121938 0.638548
24 1 0.402087 0.354841 0.624424
20 1 0.880138 0.380921 0.649587
28 1 0.736864 0.264019 0.490569
19 1 0.25 0 0.75
23 1 0.375 0.125 0.875
27 1 0.75 0 0.75
31 1 0.875 0.125 0.875
18 1 0 0.25 0.75
22 1 0.125 0.375 0.875
26 1 0.511829 0.245378 0.762181
30 1 0.628772 0.386647 0.869422
32 1 0 0.5 0
36 1 0.125 0.625 0.125
40 1 0.511242 0.495335 0.0182604
44 1 0.635181 0.628128 0.128415
35 1 0.25 0.75 0
39 1 0.375 0.875 0.125
43 1 0.75 0.75 0
47 1 0.875 0.875 0.125
34 1 0.238244 0.487929 0.239923
38 1 0.36787 0.636115 0.362317
42 1 0.748912 0.490981 0.260017
46 1 0.878747 0.617507 0.385165
33 1 0 0.75 0.25
37 1 0.125 0.875 0.375
41 1 0.509747 0.761055 0.258263
45 1 0.617184 0.867505 0.375203
48 1 0.0192192 0.48329 0.517669
52 1 0.136125 0.619978 0.632106
51 1 0.241125 0.742845 0.511759
55 1 0.380581 0.862674 0.604428
59 1 0.755561 0.730302 0.501217
60 1 0.875 0.875 0.625
50 1 0.249842 0.489729 0.757003
54 1 0.384328 0.616854 0.88531
56 1 0.875 0.625 0.875
58 1 0.755705 0.505962 0.750726
49 1 0 0.75 0.75
53 1 0.125 0.875 0.875
57 1 0.50817 0.733619 0.737165
61 1 0.625 0.875 0.875
ITEM: TIMESTEP
1000
ITEM: NUMBER OF ATOMS
61
ITEM: BOX BOUNDS pp pp pp
0.0000000000000000e+00 1.0859999999999999e+01
0.0000000000000000e+00 1.0859999999999999e+01
0.0000000000000000e+00 1.0859999999999999e+01
ITEM: ATOMS id type xs ys zs
1 1 0 0 0
5 1 0.125 0.125 0.125
9 1 0.5 0 0
13 1 0.625 0.125 0.125
4 1 0.25 0.25 0
8 1 0.383831 0.366254 0.134436
12 1 0.75 0.25 0
16 1 0.875 0.375 0.125
3 1 0.25 0 0.25
7 1 0.367301 0.132792 0.36158
11 1 0.75 0 0.25
15 1 0.875 0.125 0.375
2 1 0 0.25 0.25
6 1 0.127977 0.361622 0.386321
10 1 0.511828 0.24847 0.256892
14 1 0.603475 0.390702 0.375707
17 1 0 0 0.5
21 1 0.125 0.125 0.625
25 1 0.498269 0.000203042 0.500104
29 1 0.624453 0.128543 0.632546
24 1 0.395543 0.362037 0.619658
20 1 0.884707 0.36982 0.636653
28 1 0.750884 0.261742 0.492604
19 1 0.25 0 0.75
23 1 0.375 0.125 0.875
27 1 0.75 0 0.75
31 1 0.875 0.125 0.875
18 1 0 0.25 0.75
22 1 0.125 0.375 0.875
26 1 0.507246 0.253977 0.769842
30 1 0.637788 0.383881 0.866314
32 1 0 0.5 0
36 1 0.125 0.625 0.125
40 1 0.506296 0.49039 0.0183952
44 1 0.637711 0.607589 0.129599
35 1 0.25 0.75 0
39 1 0.375 0.875 0.125
43 1 0.75 0.75 0
47 1 0.875 0.875 0.125
34 1 0.236458 0.492827 0.253819
38 1 0.366162 0.628682 0.367147
42 1 0.749801 0.495358 0.254107
46 1 0.876376 0.613889 0.388191
33 1 0 0.75 0.25
37 1 0.125 0.875 0.375
41 1 0.497414 0.764629 0.252668
45 1 0.616956 0.878798 0.371991
48 1 0.00855357 0.481778 0.504378
52 1 0.137652 0.626294 0.637846
51 1 0.244984 0.744485 0.513586
55 1 0.375559 0.870205 0.607246
59 1 0.755504 0.730301 0.512911
60 1 0.875 0.875 0.625
50 1 0.250133 0.498738 0.750943
54 1 0.384708 0.621509 0.88775
56 1 0.875 0.625 0.875
58 1 0.754839 0.501973 0.753877
49 1 0 0.75 0.75
53 1 0.125 0.875 0.875
57 1 0.506195 0.722551 0.737519
61 1 0.625 0.875 0.875
ITEM: TIMESTEP
1100
ITEM: NUMBER OF ATOMS
61
ITEM: BOX BOUNDS pp pp pp
0.0000000000000000e+00 1.0859999999999999e+01
0.0000000000000000e+00 1.0859999999999999e+01
0.0000000000000000e+00 1.0859999999999999e+01
ITEM: ATOMS id type xs ys zs
1 1 0 0 0
5 1 0.125 0.125 0.125
9 1 0.5 0 0
13 1 0.625 0.125 0.125
4 1 0.25 0.25 0
8 1 0.378172 0.364847 0.128862
12 1 0.75 0.25 0
16 1 0.875 0.375 0.125
3 1 0.25 0 0.25
7 1 0.368079 0.130117 0.361355
11 1 0.75 0 0.25
15 1 0.875 0.125 0.375
2 1 0 0.25 0.25
6 1 0.119005 0.353839 0.38428
10 1 0.512837 0.259951 0.257688
14 1 0.616501 0.376765 0.383859
17 1 0 0 0.5
21 1 0.125 0.125 0.625
25 1 0.502493 -0.00211679 0.495392
29 1 0.623037 0.136577 0.623086
24 1 0.385413 0.372559 0.617816
20 1 0.883018 0.3626 0.618186
28 1 0.763105 0.257703 0.49748
19 1 0.25 0 0.75
23 1 0.375 0.125 0.875
27 1 0.75 0 0.75
31 1 0.875 0.125 0.875
18 1 0 0.25 0.75
22 1 0.125 0.375 0.875
26 1 0.501412 0.260876 0.771274
30 1 0.642215 0.378014 0.873068
32 1 0 0.5 0
36 1 0.125 0.625 0.125
40 1 0.50203 0.486466 0.0118989
44 1 0.63324 0.599062 0.130989
35 1 0.25 0.75 0
39 1 0.375 0.875 0.125
43 1 0.75 0.75 0
47 1 0.875 0.875 0.125
34 1 0.239565 0.496849 0.267406
38 1 0.363455 0.622255 0.373177
42 1 0.755176 0.497053 0.253051
46 1 0.876869 0.609966 0.386627
33 1 0 0.75 0.25
37 1 0.125 0.875 0.375
41 1 0.485336 0.754928 0.241368
45 1 0.627624 0.888269 0.37799
48 1 -0.00234518 0.48665 0.495044
52 1 0.129916 0.629494 0.640619
51 1 0.250982 0.747837 0.504797
55 1 0.372668 0.87806 0.620897
59 1 0.749424 0.738621 0.521142
60 1 0.875 0.875 0.625
50 1 0.259048 0.503973 0.746796
54 1 0.383566 0.62385 0.888095
56 1 0.875 0.625 0.875
58 1 0.757484 0.499685 0.752102
49 1 0 0.75 0.75
53 1 0.125 0.875 0.875
57 1 0.503182 0.717468 0.739287
61 1 0.625 0.875 0.875
ITEM: TIMESTEP
1200
ITEM: NUMBER OF ATOMS
61
ITEM: BOX BOUNDS pp pp pp
0.0000000000000000e+00 1.0859999999999999e+01
0.0000000000000000e+00 1.0859999999999999e+01
0.0000000000000000e+00 1.0859999999999999e+01
ITEM: ATOMS id type xs ys zs
1 1 0 0 0
5 1 0.125 0.125 0.125
9 1 0.5 0 0
13 1 0.625 0.125 0.125
4 1 0.25 0.25 0
8 1 0.368477 0.366488 0.126541
12 1 0.75 0.25 0
16 1 0.875 0.375 0.125
3 1 0.25 0 0.25
7 1 0.37389 0.127362 0.36558
11 1 0.75 0 0.25
15 1 0.875 0.125 0.375
2 1 0 0.25 0.25
6 1 0.113006 0.349607 0.381824
10 1 0.508295 0.26402 0.253798
14 1 0.636483 0.366719 0.394366
17 1 0 0 0.5
21 1 0.125 0.125 0.625
25 1 0.501871 0.00368599 0.492874
29 1 0.622128 0.143639 0.614536
24 1 0.375041 0.384078 0.618666
20 1 0.880502 0.363886 0.605796
28 1 0.767037 0.248095 0.500061
19 1 0.25 0 0.75
23 1 0.375 0.125 0.875
27 1 0.75 0 0.75
31 1 0.875 0.125 0.875
18 1 0 0.25 0.75
22 1 0.125 0.375 0.875
26 1 0.494841 0.266069 0.76442
30 1 0.64127 0.372405 0.88479
32 1 0 0.5 0
36 1 0.125 0.625 0.125
40 1 0.498976 0.48381 0.000514746
44 1 0.622532 0.604364 0.129305
35 1 0.25 0.75 0
39 1 0.375 0.875 0.125
43 1 0.75 0.75 0
47 1 0.875 0.875 0.125
34 1 0.242694 0.496558 0.274971
38 1 0.364358 0.6194 0.380754
42 1 0.761423 0.492519 0.258202
46 1 0.874899 0.61388 0.380914
33 1 0 0.75 0.25
37 1 0.125 0.875 0.375
41 1 0.485103 0.737849 0.237826
45 1 0.638454 0.884569 0.382748
48 1 -0.00616617 0.494415 0.492897
52 1 0.119361 0.628535 0.634281
51 1 0.254929 0.752198 0.494414
55 1 0.374126 0.88275 0.637303
59 1 0.741733 0.7493 0.522751
60 1 0.875 0.875 0.625
50 1 0.269791 0.506052 0.746647
54 1 0.381054 0.622644 0.887089
56 1 0.875 0.625 0.875
58 1 0.762797 0.496343 0.745834
49 1 0 0.75 0.75
53 1 0.125 0.875 0.875
57 1 0.500107 0.720472 0.741877
61 1 0.625 0.875 0.875
ITEM: TIMESTEP
1300
ITEM: NUMBER OF ATOMS
61
ITEM: BOX BOUNDS pp pp pp
0.0000000000000000e+00 1.0859999999999999e+01
0.0000000000000000e+00 1.0859999999999999e+01
0.0000000000000000e+00 1.0859999999999999e+01
ITEM: ATOMS id type xs ys zs
1 1 0 0 0
5 1 0.125 0.125 0.125
9 1 0.5 0 0
13 1 0.625 0.125 0.125
4 1 0.25 0.25 0
8 1 0.358986 0.372983 0.127676
12 1 0.75 0.25 0
16 1 0.875 0.375 0.125
3 1 0.25 0 0.25
7 1 0.382421 0.125263 0.370749
11 1 0.75 0 0.25
15 1 0.875 0.125 0.375
2 1 0 0.25 0.25
6 1 0.111919 0.35249 0.383052
10 1 0.502433 0.262749 0.249351
14 1 0.655399 0.3614 0.400363
17 1 0 0 0.5
21 1 0.125 0.125 0.625
25 1 0.498796 0.0121363 0.494279
29 1 0.619938 0.146938 0.611216
24 1 0.368348 0.392959 0.619023
20 1 0.881889 0.371896 0.60569
28 1 0.764095 0.232673 0.499533
19 1 0.25 0 0.75
23 1 0.375 0.125 0.875
27 1 0.75 0 0.75
31 1 0.875 0.125 0.875
18 1 0 0.25 0.75
22 1 0.125 0.375 0.875
26 1 0.489589 0.269456 0.752331
30 1 0.635591 0.3714 0.890007
32 1 0 0.5 0
36 1 0.125 0.625 0.125
40 1 0.495904 0.482964 -0.00868379
44 1 0.613497 0.614139 0.125483
35 1 0.25 0.75 0
39 1 0.375 0.875 0.125
43 1 0.75 0.75 0
47 1 0.875 0.875 0.125
34 1 0.242493 0.491364 0.274875
38 1 0.371293 0.619018 0.388215
42 1 0.76105 0.485879 0.263645
46 1 0.870612 0.627514 0.374023
33 1 0 0.75 0.25
37 1 0.125 0.875 0.375
41 1 0.496274 0.724954 0.247154
45 1 0.638521 0.868136 0.38089
48 1 -0.00214935 0.502632 0.494742
52 1 0.113168 0.623873 0.621209
51 1 0.255295 0.758197 0.490676
55 1 0.381041 0.88162 0.647453
59 1 0.735865 0.757579 0.518497
60 1 0.875 0.875 0.625
50 1 0.272675 0.508595 0.749757
54 1 0.378765 0.620016 0.884717
56 1 0.875 0.625 0.875
58 1 0.767285 0.490233 0.739652
49 1 0 0.75 0.75
53 1 0.125 0.875 0.875
57 1 0.497748 0.730986 0.745771
61 1 0.625 0.875 0.875
ITEM: TIMESTEP
1400
ITEM: NUMBER OF ATOMS
61
ITEM: BOX BOUNDS pp pp pp
0.0000000000000000e+00 1.0859999999999999e+01
0.0000000000000000e+00 1.0859999999999999e+01
0.0000000000000000e+00 1.0859999999999999e+01
ITEM: ATOMS id type xs ys zs
1 1 0 0 0
5 1 0.125 0.125 0.125
9 1 0.5 0 0
13 1 0.625 0.125 0.125
4 1 0.25 0.25 0
8 1 0.353921 0.381926 0.130488
12 1 0.75 0.25 0
16 1 0.875 0.375 0.125
3 1 0.25 0 0.25
7 1 0.38783 0.125429 0.372045
11 1 0.75 0 0.25
15 1 0.875 0.125 0.375
2 1 0 0.25 0.25
6 1 0.115024 0.361511 0.388046
10 1 0.499401 0.259936 0.247878
14 1 0.663639 0.361157 0.39764
17 1 0 0 0.5
21 1 0.125 0.125 0.625
25 1 0.499438 0.0141786 0.499934
29 1 0.614158 0.143647 0.616967
24 1 0.366794 0.397348 0.615946
20 1 0.884409 0.377814 0.61178
28 1 0.764918 0.218737 0.503559
19 1 0.25 0 0.75
23 1 0.375 0.125 0.875
27 1 0.75 0 0.75
31 1 0.875 0.125 0.875
18 1 0 0.25 0.75
22 1 0.125 0.375 0.875
26 1 0.48728 0.270368 0.739329
30 1 0.628283 0.373804 0.882608
32 1 0 0.5 0
36 1 0.125 0.625 0.125
40 1 0.49109 0.485416 -0.00952204
44 1 0.612579 0.618669 0.118624
35 1 0.25 0.75 0
39 1 0.375 0.875 0.125
43 1 0.75 0.75 0
47 1 0.875 0.875 0.125
34 1 0.240681 0.486493 0.270239
38 1 0.380022 0.617263 0.393812
42 1 0.755101 0.483316 0.265118
46 1 0.865871 0.644544 0.370328
33 1 0 0.75 0.25
37 1 0.125 0.875 0.375
41 1 0.507362 0.722572 0.263886
45 1 0.62686 0.853258 0.371823
48 1 0.00238232 0.510018 0.493297
52 1 0.115748 0.621541 0.609447
51 1 0.254718 0.76362 0.495699
55 1 0.389353 0.878209 0.647312
59 1 0.735938 0.759147 0.513693
60 1 0.875 0.875 0.625
50 1 0.261764 0.51147 0.75403
54 1 0.378084 0.620988 0.881377
56 1 0.875 0.625 0.875
58 1 0.767789 0.484343 0.738113
49 1 0 0.75 0.75
53 1 0.125 0.875 0.875
57 1 0.498097 0.744909 0.752783
61 1 0.625 0.875 0.875
ITEM: TIMESTEP
1500
ITEM: NUMBER OF ATOMS
61
ITEM: BOX BOUNDS pp pp pp
0.0000000000000000e+00 1.0859999999999999e+01
0.0000000000000000e+00 1.0859999999999999e+01
0.0000000000000000e+00 1.0859999999999999e+01
ITEM: ATOMS id type xs ys zs
1 1 0 0 0
5 1 0.125 0.125 0.125
9 1 0.5 0 0
13 1 0.625 0.125 0.125
4 1 0.25 0.25 0
8 1 0.355821 0.387435 0.131785
12 1 0.75 0.25 0
16 1 0.875 0.375 0.125
3 1 0.25 0 0.25
7 1 0.387416 0.126982 0.369195
11 1 0.75 0 0.25
15 1 0.875 0.125 0.375
2 1 0 0.25 0.25
6 1 0.11933 0.371472 0.393075
10 1 0.501115 0.258789 0.249962
14 1 0.659395 0.358758 0.391116
17 1 0 0 0.5
21 1 0.125 0.125 0.625
25 1 0.504103 0.00593947 0.506152
29 1 0.608203 0.134617 0.629751
24 1 0.367117 0.400378 0.61135
20 1 0.888169 0.377467 0.6171
28 1 0.767615 0.214083 0.51549
19 1 0.25 0 0.75
23 1 0.375 0.125 0.875
27 1 0.75 0 0.75
31 1 0.875 0.125 0.875
18 1 0 0.25 0.75
22 1 0.125 0.375 0.875
26 1 0.487202 0.268814 0.729618
30 1 0.621584 0.376039 0.866476
32 1 0 0.5 0
36 1 0.125 0.625 0.125
40 1 0.485876 0.491113 -0.00290688
44 1 0.619174 0.616948 0.112299
35 1 0.25 0.75 0
39 1 0.375 0.875 0.125
43 1 0.75 0.75 0
47 1 0.875 0.875 0.125
34 1 0.23888 0.488427 0.265685
38 1 0.384841 0.613093 0.398471
42 1 0.748933 0.490912 0.258856
46 1 0.859759 0.656911 0.370499
33 1 0 0.75 0.25
37 1 0.125 0.875 0.375
41 1 0.508888 0.72508 0.273966
45 1 0.614514 0.8527 0.36492
48 1 0.000193052 0.514259 0.485406
52 1 0.128401 0.62724 0.606146
51 1 0.256116 0.765409 0.506265
55 1 0.392641 0.87814 0.636651
59 1 0.740916 0.755274 0.510118
60 1 0.875 0.875 0.625
50 1 0.240779 0.511666 0.755863
54 1 0.377706 0.627186 0.876822
56 1 0.875 0.625 0.875
58 1 0.762571 0.482832 0.744062
49 1 0 0.75 0.75
53 1 0.125 0.875 0.875
57 1 0.50303 0.756775 0.764012
61 1 0.625 0.875 0.875
ITEM: TIMESTEP
1600
ITEM: NUMBER OF ATOMS
61
ITEM: BOX BOUNDS pp pp pp
0.0000000000000000e+00 1.0859999999999999e+01
0.0000000000000000e+00 1.0859999999999999e+01
0.0000000000000000e+00 1.0859999999999999e+01
ITEM: ATOMS id type xs ys zs
1 1 0 0 0
5 1 0.125 0.125 0.125
9 1 0.5 0 0
13 1 0.625 0.125 0.125
4 1 0.25 0.25 0
8 1 0.36359 0.385716 0.131125
12 1 0.75 0.25 0
16 1 0.875 0.375 0.125
3 1 0.25 0 0.25
7 1 0.383844 0.126052 0.366755
11 1 0.75 0 0.25
15 1 0.875 0.125 0.375
2 1 0 0.25 0.25
6 1 0.12292 0.377666 0.394687
10 1 0.505608 0.259196 0.25282
14 1 0.649436 0.353077 0.384044
17 1 0 0 0.5
21 1 0.125 0.125 0.625
25 1 0.50902 -0.00706224 0.506978
29 1 0.608037 0.12077 0.643621
24 1 0.366042 0.404121 0.607761
20 1 0.890784 0.373984 0.620412
28 1 0.768158 0.219486 0.532348
19 1 0.25 0 0.75
23 1 0.375 0.125 0.875
27 1 0.75 0 0.75
31 1 0.875 0.125 0.875
18 1 0 0.25 0.75
22 1 0.125 0.375 0.875
26 1 0.486128 0.266646 0.725996
30 1 0.614015 0.376448 0.85123
32 1 0 0.5 0
36 1 0.125 0.625 0.125
40 1 0.483882 0.499143 0.00354323
44 1 0.62713 0.613963 0.111055
35 1 0.25 0.75 0
39 1 0.375 0.875 0.125
43 1 0.75 0.75 0
47 1 0.875 0.875 0.125
34 1 0.23831 0.498752 0.263305
38 1 0.383469 0.607582 0.40305
42 1 0.744502 0.504761 0.248847
46 1 0.853992 0.659608 0.370562
33 1 0 0.75 0.25
37 1 0.125 0.875 0.375
41 1 0.495251 0.723356 0.263666
45 1 0.615213 0.871962 0.370716
48 1 -0.00678867 0.519288 0.477017
52 1 0.14087 0.636116 0.60984
51 1 0.260648 0.764071 0.514949
55 1 0.390025 0.880334 0.623441
59 1 0.744396 0.75195 0.507784
60 1 0.875 0.875 0.625
50 1 0.221215 0.51055 0.754389
54 1 0.374704 0.634264 0.872288
56 1 0.875 0.625 0.875
58 1 0.75586 0.486669 0.753886
49 1 0 0.75 0.75
53 1 0.125 0.875 0.875
57 1 0.507209 0.763958 0.772217
61 1 0.625 0.875 0.875
ITEM: TIMESTEP
1700
ITEM: NUMBER OF ATOMS
61
ITEM: BOX BOUNDS pp pp pp
0.0000000000000000e+00 1.0859999999999999e+01