ITEM: TIMESTEP
0
ITEM: NUMBER OF ATOMS
61
ITEM: BOX BOUNDS pp pp pp
0.0000000000000000e+00 1.0859999999999999e+01
0.0000000000000000e+00 1.0859999999999999e+01
0.0000000000000000e+00 1.0859999999999999e+01
ITEM: ATOMS id type xs ys zs
1 1 0 0 0
5 1 0.125 0.125 0.125
9 1 0.5 0 0
13 1 0.625 0.125 0.125
4 1 0.25 0.25 0
8 1 0.375 0.375 0.125
12 1 0.75 0.25 0
14 1 0.875 0.375 0.125
3 1 0.25 0 0.25
7 1 0.375 0.125 0.375
11 1 0.75 0 0.25
15 1 0.875 0.125 0.375
2 1 0 0.25 0.25
6 1 0.125 0.375 0.375
10 1 0.5 0.25 0.25
16 1 0 0 0.5
20 1 0.125 0.125 0.625
24 1 0.5 0 0.5
28 1 0.625 0.125 0.625
23 1 0.375 0.375 0.625
19 1 0.875 0.375 0.625
27 1 0.75 0.25 0.5
18 1 0.25 0 0.75
22 1 0.375 0.125 0.875
26 1 0.75 0 0.75
30 1 0.875 0.125 0.875
17 1 0 0.25 0.75
21 1 0.125 0.375 0.875
25 1 0.5 0.25 0.75
29 1 0.625 0.375 0.875
31 1 0 0.5 0
35 1 0.125 0.625 0.125
39 1 0.5 0.5 0
43 1 0.625 0.625 0.125
34 1 0.25 0.75 0
38 1 0.375 0.875 0.125
42 1 0.75 0.75 0
46 1 0.875 0.875 0.125
33 1 0.25 0.5 0.25
37 1 0.375 0.625 0.375
41 1 0.75 0.5 0.25
45 1 0.875 0.625 0.375
32 1 0 0.75 0.25
36 1 0.125 0.875 0.375
40 1 0.5 0.75 0.25
44 1 0.625 0.875 0.375
47 1 0 0.5 0.5
51 1 0.125 0.625 0.625
55 1 0.5 0.5 0.5
50 1 0.25 0.75 0.5
54 1 0.375 0.875 0.625
58 1 0.75 0.75 0.5
59 1 0.875 0.875 0.625
49 1 0.25 0.5 0.75
53 1 0.375 0.625 0.875
57 1 0.75 0.5 0.75
61 1 0.875 0.625 0.875
48 1 0 0.75 0.75
52 1 0.125 0.875 0.875
56 1 0.5 0.75 0.75
60 1 0.625 0.875 0.875
ITEM: TIMESTEP
100
ITEM: NUMBER OF ATOMS
61
ITEM: BOX BOUNDS pp pp pp
0.0000000000000000e+00 1.0859999999999999e+01
0.0000000000000000e+00 1.0859999999999999e+01
0.0000000000000000e+00 1.0859999999999999e+01
ITEM: ATOMS id type xs ys zs
1 1 0 0 0
5 1 0.125 0.125 0.125
9 1 0.5 0 0
13 1 0.625 0.125 0.125
4 1 0.25 0.25 0
8 1 0.377591 0.371327 0.120015
12 1 0.75 0.25 0
14 1 0.875 0.375 0.125
3 1 0.25 0 0.25
7 1 0.373666 0.118037 0.388957
11 1 0.75 0 0.25
15 1 0.875 0.125 0.375
2 1 0 0.25 0.25
6 1 0.121595 0.36976 0.36895
10 1 0.489332 0.246872 0.255147
16 1 0 0 0.5
20 1 0.125 0.125 0.625
24 1 0.509521 -0.0108914 0.501595
28 1 0.629866 0.120772 0.601029
23 1 0.364708 0.377736 0.62347
19 1 0.869229 0.376039 0.607222
27 1 0.761288 0.250846 0.503074
18 1 0.25 0 0.75
22 1 0.375 0.125 0.875
26 1 0.75 0 0.75
30 1 0.875 0.125 0.875
17 1 0 0.25 0.75
21 1 0.125 0.375 0.875
25 1 0.492216 0.250773 0.755289
29 1 0.625539 0.379536 0.879291
31 1 0 0.5 0
35 1 0.125 0.625 0.125
39 1 0.516456 0.500831 0.00203728
43 1 0.62284 0.618099 0.122262
34 1 0.25 0.75 0
38 1 0.375 0.875 0.125
42 1 0.75 0.75 0
46 1 0.875 0.875 0.125
33 1 0.238825 0.509055 0.24852
37 1 0.378375 0.629264 0.384327
41 1 0.761697 0.50179 0.24732
45 1 0.891531 0.61228 0.379165
32 1 0 0.75 0.25
36 1 0.125 0.875 0.375
40 1 0.506561 0.746684 0.240421
44 1 0.61351 0.882958 0.38083
47 1 -0.011462 0.497448 0.494653
51 1 0.131543 0.627215 0.635385
55 1 0.499017 0.492334 0.506496
50 1 0.25621 0.755272 0.508764
54 1 0.372969 0.884305 0.635855
58 1 0.740062 0.752601 0.496944
59 1 0.875 0.875 0.625
49 1 0.241761 0.495926 0.748839
53 1 0.373365 0.631581 0.872241
57 1 0.747096 0.509457 0.740219
61 1 0.875 0.625 0.875
48 1 0 0.75 0.75
52 1 0.125 0.875 0.875
56 1 0.507733 0.751297 0.751298
60 1 0.625 0.875 0.875
ITEM: TIMESTEP
200
ITEM: NUMBER OF ATOMS
61
ITEM: BOX BOUNDS pp pp pp
0.0000000000000000e+00 1.0859999999999999e+01
0.0000000000000000e+00 1.0859999999999999e+01
0.0000000000000000e+00 1.0859999999999999e+01
ITEM: ATOMS id type xs ys zs
1 1 0 0 0
5 1 0.125 0.125 0.125
9 1 0.5 0 0
13 1 0.625 0.125 0.125
4 1 0.25 0.25 0
8 1 0.379025 0.371739 0.11803
12 1 0.75 0.25 0
14 1 0.875 0.375 0.125
3 1 0.25 0 0.25
7 1 0.372692 0.11095 0.400578
11 1 0.75 0 0.25
15 1 0.875 0.125 0.375
2 1 0 0.25 0.25
6 1 0.118398 0.368721 0.36529
10 1 0.480067 0.241852 0.259352
16 1 0 0 0.5
20 1 0.125 0.125 0.625
24 1 0.506849 -0.0148454 0.507455
28 1 0.633135 0.121476 0.590249
23 1 0.356449 0.377727 0.623447
19 1 0.86689 0.380568 0.603323
27 1 0.766617 0.246774 0.497978
18 1 0.25 0 0.75
22 1 0.375 0.125 0.875
26 1 0.75 0 0.75
30 1 0.875 0.125 0.875
17 1 0 0.25 0.75
21 1 0.125 0.375 0.875
25 1 0.490259 0.251242 0.753378
29 1 0.62921 0.381639 0.877762
31 1 0 0.5 0
35 1 0.125 0.625 0.125
39 1 0.520394 0.500211 0.000837181
43 1 0.629684 0.615703 0.123462
34 1 0.25 0.75 0
38 1 0.375 0.875 0.125
42 1 0.75 0.75 0
46 1 0.875 0.875 0.125
33 1 0.235308 0.512679 0.250308
37 1 0.382226 0.631946 0.390863
41 1 0.770937 0.504469 0.24502
45 1 0.892836 0.61458 0.374423
32 1 0 0.75 0.25
36 1 0.125 0.875 0.375
40 1 0.508662 0.745339 0.236119
44 1 0.611766 0.880585 0.375756
47 1 -0.00437914 0.489536 0.49833
51 1 0.131857 0.62865 0.637955
55 1 0.497209 0.486338 0.511594
50 1 0.260227 0.760427 0.516882
54 1 0.376407 0.887664 0.642946
58 1 0.735611 0.752998 0.493208
59 1 0.875 0.875 0.625
49 1 0.238941 0.493538 0.750537
53 1 0.373849 0.633623 0.870116
57 1 0.744782 0.515487 0.731956
61 1 0.875 0.625 0.875
48 1 0 0.75 0.75
52 1 0.125 0.875 0.875
56 1 0.511902 0.753184 0.751668
60 1 0.625 0.875 0.875
ITEM: TIMESTEP
300
ITEM: NUMBER OF ATOMS
61
ITEM: BOX BOUNDS pp pp pp
0.0000000000000000e+00 1.0859999999999999e+01
0.0000000000000000e+00 1.0859999999999999e+01
0.0000000000000000e+00 1.0859999999999999e+01
ITEM: ATOMS id type xs ys zs
1 1 0 0 0
5 1 0.125 0.125 0.125
9 1 0.5 0 0
13 1 0.625 0.125 0.125
4 1 0.25 0.25 0
8 1 0.378416 0.37638 0.120248
12 1 0.75 0.25 0
14 1 0.875 0.375 0.125
3 1 0.25 0 0.25
7 1 0.370172 0.105271 0.408169
11 1 0.75 0 0.25
15 1 0.875 0.125 0.375
2 1 0 0.25 0.25
6 1 0.118048 0.372121 0.365108
10 1 0.473026 0.234998 0.261859
16 1 0 0 0.5
20 1 0.125 0.125 0.625
24 1 0.496452 -0.0147692 0.513697
28 1 0.631647 0.127784 0.597492
23 1 0.350915 0.373274 0.624773
19 1 0.866874 0.385272 0.614675
27 1 0.765431 0.242163 0.486781
18 1 0.25 0 0.75
22 1 0.375 0.125 0.875
26 1 0.75 0 0.75
30 1 0.875 0.125 0.875
17 1 0 0.25 0.75
21 1 0.125 0.375 0.875
25 1 0.496833 0.250356 0.741936
29 1 0.635231 0.380658 0.86915
31 1 0 0.5 0
35 1 0.125 0.625 0.125
39 1 0.511961 0.499158 -0.00269962
43 1 0.643177 0.618063 0.127111
34 1 0.25 0.75 0
38 1 0.375 0.875 0.125
42 1 0.75 0.75 0
46 1 0.875 0.875 0.125
33 1 0.242005 0.509483 0.255878
37 1 0.38578 0.632737 0.394209
41 1 0.774948 0.507498 0.243462
45 1 0.884518 0.626548 0.368577
32 1 0 0.75 0.25
36 1 0.125 0.875 0.375
40 1 0.505873 0.745263 0.237856
44 1 0.617523 0.870926 0.362603
47 1 0.016297 0.485091 0.504248
51 1 0.127208 0.629172 0.632808
55 1 0.495053 0.482948 0.514714
50 1 0.261175 0.764056 0.522428
54 1 0.384977 0.883249 0.646419
58 1 0.737899 0.750923 0.489789
59 1 0.875 0.875 0.625
49 1 0.242345 0.495051 0.754558
53 1 0.376485 0.630433 0.869275
57 1 0.743381 0.517954 0.72641
61 1 0.875 0.625 0.875
48 1 0 0.75 0.75
52 1 0.125 0.875 0.875
56 1 0.511652 0.754246 0.750853
60 1 0.625 0.875 0.875
ITEM: TIMESTEP
400
ITEM: NUMBER OF ATOMS
61
ITEM: BOX BOUNDS pp pp pp
0.0000000000000000e+00 1.0859999999999999e+01
0.0000000000000000e+00 1.0859999999999999e+01
0.0000000000000000e+00 1.0859999999999999e+01
ITEM: ATOMS id type xs ys zs
1 1 0 0 0
5 1 0.125 0.125 0.125
9 1 0.5 0 0
13 1 0.625 0.125 0.125
4 1 0.25 0.25 0
8 1 0.375569 0.381956 0.126053
12 1 0.75 0.25 0
14 1 0.875 0.375 0.125
3 1 0.25 0 0.25
7 1 0.363461 0.103438 0.409482
11 1 0.75 0 0.25
15 1 0.875 0.125 0.375
2 1 0 0.25 0.25
6 1 0.12305 0.376216 0.366069
10 1 0.468273 0.227326 0.261781
16 1 0 0 0.5
20 1 0.125 0.125 0.625
24 1 0.492642 -0.0136377 0.514129
28 1 0.627597 0.132629 0.613957
23 1 0.348719 0.365583 0.626498
19 1 0.869277 0.385121 0.628243
27 1 0.758038 0.245566 0.479878
18 1 0.25 0 0.75
22 1 0.375 0.125 0.875
26 1 0.75 0 0.75
30 1 0.875 0.125 0.875
17 1 0 0.25 0.75
21 1 0.125 0.375 0.875
25 1 0.505779 0.25047 0.72914
29 1 0.63937 0.378528 0.856931
31 1 0 0.5 0
35 1 0.125 0.625 0.125
39 1 0.501206 0.499287 -0.00601295
43 1 0.651942 0.622668 0.128253
34 1 0.25 0.75 0
38 1 0.375 0.875 0.125
42 1 0.75 0.75 0
46 1 0.875 0.875 0.125
33 1 0.255303 0.50355 0.261576
37 1 0.387573 0.631814 0.395403
41 1 0.773916 0.508882 0.243602
45 1 0.87681 0.637092 0.371446
32 1 0 0.75 0.25
36 1 0.125 0.875 0.375
40 1 0.500233 0.743224 0.2422
44 1 0.62475 0.862863 0.352606
47 1 0.033127 0.489516 0.509431
51 1 0.123805 0.62907 0.6257
55 1 0.492513 0.481669 0.516183
50 1 0.259287 0.764703 0.523084
54 1 0.391824 0.874015 0.649368
58 1 0.745349 0.748185 0.48791
59 1 0.875 0.875 0.625
49 1 0.248578 0.501314 0.757753
53 1 0.380511 0.624393 0.87048
57 1 0.742825 0.519182 0.725393
61 1 0.875 0.625 0.875
48 1 0 0.75 0.75
52 1 0.125 0.875 0.875
56 1 0.509273 0.751708 0.75093
60 1 0.625 0.875 0.875
ITEM: TIMESTEP
500
ITEM: NUMBER OF ATOMS
61
ITEM: BOX BOUNDS pp pp pp
0.0000000000000000e+00 1.0859999999999999e+01
0.0000000000000000e+00 1.0859999999999999e+01
0.0000000000000000e+00 1.0859999999999999e+01
ITEM: ATOMS id type xs ys zs
1 1 0 0 0
5 1 0.125 0.125 0.125
9 1 0.5 0 0
13 1 0.625 0.125 0.125
4 1 0.25 0.25 0
8 1 0.372288 0.38437 0.1329
12 1 0.75 0.25 0
14 1 0.875 0.375 0.125
3 1 0.25 0 0.25
7 1 0.352994 0.105452 0.405099
11 1 0.75 0 0.25
15 1 0.875 0.125 0.375
2 1 0 0.25 0.25
6 1 0.13212 0.377612 0.366323
10 1 0.465483 0.220182 0.258174
16 1 0 0 0.5
20 1 0.125 0.125 0.625
24 1 0.50012 -0.0130081 0.508905
28 1 0.626389 0.131142 0.628445
23 1 0.349393 0.357497 0.628053
19 1 0.87517 0.380013 0.635766
27 1 0.745595 0.256348 0.481489
18 1 0.25 0 0.75
22 1 0.375 0.125 0.875
26 1 0.75 0 0.75
30 1 0.875 0.125 0.875
17 1 0 0.25 0.75
21 1 0.125 0.375 0.875
25 1 0.510536 0.254149 0.723575
29 1 0.639127 0.376234 0.84563
31 1 0 0.5 0
35 1 0.125 0.625 0.125
39 1 0.495918 0.499245 -0.00709328
43 1 0.648785 0.627419 0.126219
34 1 0.25 0.75 0
38 1 0.375 0.875 0.125
42 1 0.75 0.75 0
46 1 0.875 0.875 0.125
33 1 0.269743 0.499931 0.264847
37 1 0.386567 0.629322 0.395908
41 1 0.770479 0.508204 0.247153
45 1 0.879476 0.635531 0.383843
32 1 0 0.75 0.25
36 1 0.125 0.875 0.375
40 1 0.49362 0.73789 0.2453
44 1 0.63106 0.859863 0.352018
47 1 0.0319341 0.500323 0.508942
51 1 0.127311 0.632898 0.624594
55 1 0.489267 0.481358 0.516671
50 1 0.255804 0.76227 0.517917
54 1 0.39069 0.867037 0.649754
58 1 0.753103 0.748676 0.489972
59 1 0.875 0.875 0.625
49 1 0.253365 0.508669 0.757262
53 1 0.384081 0.62032 0.873864
57 1 0.743414 0.521351 0.72923
61 1 0.875 0.625 0.875
48 1 0 0.75 0.75
52 1 0.125 0.875 0.875
56 1 0.509529 0.742742 0.755069
60 1 0.625 0.875 0.875
ITEM: TIMESTEP
600
ITEM: NUMBER OF ATOMS
61
ITEM: BOX BOUNDS pp pp pp
0.0000000000000000e+00 1.0859999999999999e+01
0.0000000000000000e+00 1.0859999999999999e+01
0.0000000000000000e+00 1.0859999999999999e+01
ITEM: ATOMS id type xs ys zs
1 1 0 0 0
5 1 0.125 0.125 0.125
9 1 0.5 0 0
13 1 0.625 0.125 0.125
4 1 0.25 0.25 0
8 1 0.372807 0.379881 0.135969
12 1 0.75 0.25 0
14 1 0.875 0.375 0.125
3 1 0.25 0 0.25
7 1 0.343784 0.10889 0.399203
11 1 0.75 0 0.25
15 1 0.875 0.125 0.375
2 1 0 0.25 0.25
6 1 0.140904 0.377526 0.368352
10 1 0.464405 0.214428 0.250749
16 1 0 0 0.5
20 1 0.125 0.125 0.625
24 1 0.512004 -0.0126689 0.501728
28 1 0.631657 0.121645 0.631584
23 1 0.350842 0.351927 0.629221
19 1 0.880995 0.374925 0.635501
27 1 0.733802 0.267928 0.489765
18 1 0.25 0 0.75
22 1 0.375 0.125 0.875
26 1 0.75 0 0.75
30 1 0.875 0.125 0.875
17 1 0 0.25 0.75
21 1 0.125 0.375 0.875
25 1 0.50621 0.260815 0.730024
29 1 0.634842 0.37497 0.84
31 1 0 0.5 0
35 1 0.125 0.625 0.125
39 1 0.500046 0.496008 -0.00368282
43 1 0.634524 0.628409 0.124004
34 1 0.25 0.75 0
38 1 0.375 0.875 0.125
42 1 0.75 0.75 0
46 1 0.875 0.875 0.125
33 1 0.278469 0.502251 0.266641
37 1 0.383324 0.625939 0.397297
41 1 0.765861 0.507813 0.25342
45 1 0.890601 0.62381 0.395476
32 1 0 0.75 0.25
36 1 0.125 0.875 0.375
40 1 0.489324 0.732649 0.246306
44 1 0.63456 0.859957 0.359132
47 1 0.0173586 0.509058 0.503227
51 1 0.13668 0.639721 0.630932
55 1 0.485279 0.481104 0.517047
50 1 0.252849 0.758237 0.507922
54 1 0.384473 0.864921 0.64481
58 1 0.757902 0.75366 0.497305
59 1 0.875 0.875 0.625
49 1 0.254799 0.51259 0.752685
53 1 0.384194 0.621625 0.878456
57 1 0.746769 0.523485 0.735757
61 1 0.875 0.625 0.875
48 1 0 0.75 0.75
52 1 0.125 0.875 0.875
56 1 0.512964 0.730502 0.761596
60 1 0.625 0.875 0.875
ITEM: TIMESTEP
700
ITEM: NUMBER OF ATOMS
61
ITEM: BOX BOUNDS pp pp pp
0.0000000000000000e+00 1.0859999999999999e+01
0.0000000000000000e+00 1.0859999999999999e+01
0.0000000000000000e+00 1.0859999999999999e+01
ITEM: ATOMS id type xs ys zs
1 1 0 0 0
5 1 0.125 0.125 0.125
9 1 0.5 0 0
13 1 0.625 0.125 0.125
4 1 0.25 0.25 0
8 1 0.377734 0.369557 0.133578
12 1 0.75 0.25 0
14 1 0.875 0.375 0.125
3 1 0.25 0 0.25
7 1 0.340171 0.112872 0.395315
11 1 0.75 0 0.25
15 1 0.875 0.125 0.375
2 1 0 0.25 0.25
6 1 0.145596 0.377708 0.372974
10 1 0.464774 0.209612 0.241096
16 1 0 0 0.5
20 1 0.125 0.125 0.625
24 1 0.521401 -0.0118619 0.494967
28 1 0.635808 0.112981 0.625649
23 1 0.350364 0.351077 0.62893
19 1 0.883212 0.374608 0.627766
27 1 0.726429 0.276205 0.502161
18 1 0.25 0 0.75
22 1 0.375 0.125 0.875
26 1 0.75 0 0.75
30 1 0.875 0.125 0.875
17 1 0 0.25 0.75
21 1 0.125 0.375 0.875
25 1 0.498333 0.260489 0.741342
29 1 0.63031 0.377389 0.844318
31 1 0 0.5 0
35 1 0.125 0.625 0.125
39 1 0.510118 0.489543 0.00211617
43 1 0.617104 0.62413 0.123267
34 1 0.25 0.75 0
38 1 0.375 0.875 0.125
42 1 0.75 0.75 0
46 1 0.875 0.875 0.125
33 1 0.277464 0.508621 0.265051
37 1 0.380198 0.62355 0.399779
41 1 0.760462 0.508287 0.259699
45 1 0.896015 0.616413 0.397388
32 1 0 0.75 0.25
36 1 0.125 0.875 0.375
40 1 0.48873 0.731422 0.246807
44 1 0.63434 0.86121 0.369407
47 1 0.00654692 0.509091 0.503624
51 1 0.143485 0.643275 0.637553
55 1 0.48113 0.480282 0.51818
50 1 0.252208 0.75478 0.496306
54 1 0.379091 0.86508 0.63572
58 1 0.761657 0.757383 0.505893
59 1 0.875 0.875 0.625
49 1 0.254945 0.510917 0.747694
53 1 0.380175 0.624234 0.884875
57 1 0.752916 0.522755 0.741927
61 1 0.875 0.625 0.875
48 1 0 0.75 0.75
52 1 0.125 0.875 0.875
56 1 0.517377 0.721747 0.765542
60 1 0.625 0.875 0.875
ITEM: TIMESTEP
800
ITEM: NUMBER OF ATOMS
61
ITEM: BOX BOUNDS pp pp pp
0.0000000000000000e+00 1.0859999999999999e+01
0.0000000000000000e+00 1.0859999999999999e+01
0.0000000000000000e+00 1.0859999999999999e+01
ITEM: ATOMS id type xs ys zs
1 1 0 0 0
5 1 0.125 0.125 0.125
9 1 0.5 0 0
13 1 0.625 0.125 0.125
4 1 0.25 0.25 0
8 1 0.383199 0.360222 0.128039
12 1 0.75 0.25 0
14 1 0.875 0.375 0.125
3 1 0.25 0 0.25
7 1 0.344855 0.117051 0.394504
11 1 0.75 0 0.25
15 1 0.875 0.125 0.375
2 1 0 0.25 0.25
6 1 0.144701 0.378825 0.379186
10 1 0.465916 0.204237 0.232853
16 1 0 0 0.5
20 1 0.125 0.125 0.625
24 1 0.522049 -0.00918639 0.490297
28 1 0.635038 0.111549 0.61547
23 1 0.347926 0.354049 0.627291
19 1 0.881199 0.378813 0.617485
27 1 0.726319 0.277393 0.513501
18 1 0.25 0 0.75
22 1 0.375 0.125 0.875
26 1 0.75 0 0.75
30 1 0.875 0.125 0.875
17 1 0 0.25 0.75
21 1 0.125 0.375 0.875
25 1 0.490849 0.250376 0.751881
29 1 0.628214 0.382693 0.857631
31 1 0 0.5 0
35 1 0.125 0.625 0.125
39 1 0.518223 0.48076 0.00640301
43 1 0.606157 0.617349 0.124246
34 1 0.25 0.75 0
38 1 0.375 0.875 0.125
42 1 0.75 0.75 0
46 1 0.875 0.875 0.125
33 1 0.268639 0.512734 0.25712
37 1 0.379981 0.62233 0.400177
41 1 0.754682 0.50867 0.263546
45 1 0.886478 0.623253 0.385298
32 1 0 0.75 0.25
36 1 0.125 0.875 0.375
40 1 0.490343 0.735839 0.249701
44 1 0.63267 0.861857 0.377841
47 1 0.0119373 0.496719 0.515682
51 1 0.143803 0.643177 0.638912
55 1 0.477945 0.478977 0.520339
50 1 0.252543 0.753064 0.488268
54 1 0.377564 0.865471 0.625156
58 1 0.763903 0.75469 0.510767
59 1 0.875 0.875 0.625
49 1 0.256147 0.504128 0.747023
53 1 0.374885 0.62258 0.891948
57 1 0.75959 0.516669 0.745049
61 1 0.875 0.625 0.875
48 1 0 0.75 0.75
52 1 0.125 0.875 0.875
56 1 0.520555 0.719326 0.765086
60 1 0.625 0.875 0.875
ITEM: TIMESTEP
900
ITEM: NUMBER OF ATOMS
61
ITEM: BOX BOUNDS pp pp pp
0.0000000000000000e+00 1.0859999999999999e+01
0.0000000000000000e+00 1.0859999999999999e+01
0.0000000000000000e+00 1.0859999999999999e+01
ITEM: ATOMS id type xs ys zs
1 1 0 0 0
5 1 0.125 0.125 0.125
9 1 0.5 0 0
13 1 0.625 0.125 0.125
4 1 0.25 0.25 0
8 1 0.385388 0.356628 0.121343
12 1 0.75 0.25 0
14 1 0.875 0.375 0.125
3 1 0.25 0 0.25
7 1 0.356336 0.120392 0.394984
11 1 0.75 0 0.25
15 1 0.875 0.125 0.375
2 1 0 0.25 0.25
6 1 0.139953 0.379612 0.384319
10 1 0.46675 0.197904 0.229219
16 1 0 0 0.5
20 1 0.125 0.125 0.625
24 1 0.51151 -0.00451601 0.488197
28 1 0.630117 0.116668 0.609196
23 1 0.346008 0.356357 0.626241
19 1 0.876385 0.382596 0.614321
27 1 0.734834 0.268864 0.515311
18 1 0.25 0 0.75
22 1 0.375 0.125 0.875
26 1 0.75 0 0.75
30 1 0.875 0.125 0.875
17 1 0 0.25 0.75
21 1 0.125 0.375 0.875
25 1 0.488075 0.237847 0.75656
29 1 0.629129 0.384414 0.872354
31 1 0 0.5 0
35 1 0.125 0.625 0.125
39 1 0.517732 0.47169 0.0085769
43 1 0.606695 0.613448 0.128545
34 1 0.25 0.75 0
38 1 0.375 0.875 0.125
42 1 0.75 0.75 0
46 1 0.875 0.875 0.125
33 1 0.256506 0.51202 0.245516
37 1 0.382295 0.619973 0.394574
41 1 0.747789 0.5073 0.262562
45 1 0.87511 0.632646 0.37334
32 1 0 0.75 0.25
36 1 0.125 0.875 0.375
40 1 0.493322 0.744264 0.255612
44 1 0.632258 0.860621 0.381171
47 1 0.0245923 0.488132 0.523707
51 1 0.140059 0.639798 0.635107
55 1 0.476971 0.478264 0.522686
50 1 0.251884 0.752942 0.487532
54 1 0.381911 0.864785 0.617417
58 1 0.762217 0.745898 0.510116
59 1 0.875 0.875 0.625
49 1 0.256819 0.496176 0.751737
53 1 0.37303 0.615103 0.896366
57 1 0.76381 0.505111 0.745015
61 1 0.875 0.625 0.875
48 1 0 0.75 0.75
52 1 0.125 0.875 0.875
56 1 0.51803 0.7236 0.760136
60 1 0.625 0.875 0.875
ITEM: TIMESTEP
1000
ITEM: NUMBER OF ATOMS
61
ITEM: BOX BOUNDS pp pp pp
0.0000000000000000e+00 1.0859999999999999e+01
0.0000000000000000e+00 1.0859999999999999e+01
0.0000000000000000e+00 1.0859999999999999e+01
ITEM: ATOMS id type xs ys zs
1 1 0 0 0
5 1 0.125 0.125 0.125
9 1 0.5 0 0
13 1 0.625 0.125 0.125
4 1 0.25 0.25 0
8 1 0.38174 0.357509 0.117653
12 1 0.75 0.25 0
14 1 0.875 0.375 0.125
3 1 0.25 0 0.25
7 1 0.369108 0.122348 0.394439
11 1 0.75 0 0.25
15 1 0.875 0.125 0.375
2 1 0 0.25 0.25
6 1 0.134559 0.3784 0.384263
10 1 0.465813 0.193568 0.229294
16 1 0 0 0.5
20 1 0.125 0.125 0.625
24 1 0.496243 -0.00074531 0.48826
28 1 0.621774 0.123442 0.611434
23 1 0.346459 0.3544 0.627109
19 1 0.871443 0.382479 0.618956
27 1 0.748522 0.254793 0.506614
18 1 0.25 0 0.75
22 1 0.375 0.125 0.875
26 1 0.75 0 0.75
30 1 0.875 0.125 0.875
17 1 0 0.25 0.75
21 1 0.125 0.375 0.875
25 1 0.493741 0.232267 0.752241
29 1 0.634581 0.376855 0.879643
31 1 0 0.5 0
35 1 0.125 0.625 0.125
39 1 0.508084 0.469935 0.0120817
43 1 0.615489 0.614056 0.134672
34 1 0.25 0.75 0
38 1 0.375 0.875 0.125
42 1 0.75 0.75 0
46 1 0.875 0.875 0.125
33 1 0.247009 0.504973 0.236272
37 1 0.383299 0.616205 0.383253
41 1 0.740875 0.503068 0.256739
45 1 0.871686 0.633646 0.369687
32 1 0 0.75 0.25
36 1 0.125 0.875 0.375
40 1 0.497812 0.75285 0.261906
44 1 0.63261 0.860309 0.38027
47 1 0.0342694 0.491834 0.521799
51 1 0.13545 0.63316 0.629481
55 1 0.47861 0.479294 0.523817
50 1 0.251378 0.752125 0.493165
54 1 0.38907 0.864757 0.613863
58 1 0.756251 0.736252 0.507753
59 1 0.875 0.875 0.625
49 1 0.254673 0.491341 0.759226
53 1 0.376711 0.604221 0.896693
57 1 0.763491 0.492471 0.745943
61 1 0.875 0.625 0.875
48 1 0 0.75 0.75
52 1 0.125 0.875 0.875
56 1 0.509583 0.731801 0.753505
60 1 0.625 0.875 0.875
ITEM: TIMESTEP
1100
ITEM: NUMBER OF ATOMS
61
ITEM: BOX BOUNDS pp pp pp
0.0000000000000000e+00 1.0859999999999999e+01
0.0000000000000000e+00 1.0859999999999999e+01
0.0000000000000000e+00 1.0859999999999999e+01
ITEM: ATOMS id type xs ys zs
1 1 0 0 0
5 1 0.125 0.125 0.125
9 1 0.5 0 0
13 1 0.625 0.125 0.125
4 1 0.25 0.25 0
8 1 0.371577 0.359179 0.121741
12 1 0.75 0.25 0
14 1 0.875 0.375 0.125
3 1 0.25 0 0.25
7 1 0.374475 0.124926 0.39116
11 1 0.75 0 0.25
15 1 0.875 0.125 0.375
2 1 0 0.25 0.25
6 1 0.131037 0.374163 0.376857
10 1 0.463576 0.195015 0.228457
16 1 0 0 0.5
20 1 0.125 0.125 0.625
24 1 0.487936 -0.00164682 0.49241
28 1 0.613541 0.128029 0.618414
23 1 0.349865 0.349413 0.630462
19 1 0.873125 0.37735 0.623723
27 1 0.763203 0.239178 0.492974
18 1 0.25 0 0.75
22 1 0.375 0.125 0.875
26 1 0.75 0 0.75
30 1 0.875 0.125 0.875
17 1 0 0.25 0.75
21 1 0.125 0.375 0.875
25 1 0.504371 0.236351 0.743505
29 1 0.63869 0.363529 0.879346
31 1 0 0.5 0
35 1 0.125 0.625 0.125
39 1 0.499048 0.477932 0.0140045
43 1 0.625053 0.619338 0.138239
34 1 0.25 0.75 0
38 1 0.375 0.875 0.125
42 1 0.75 0.75 0
46 1 0.875 0.875 0.125
33 1 0.243713 0.491357 0.23347
37 1 0.380275 0.611657 0.369953
41 1 0.738747 0.495609 0.250485
45 1 0.877079 0.622395 0.373658
32 1 0 0.75 0.25
36 1 0.125 0.875 0.375
40 1 0.501963 0.757922 0.264479
44 1 0.633357 0.864957 0.378972
47 1 0.0284392 0.501789 0.510821
51 1 0.133888 0.627654 0.62836
55 1 0.481638 0.482185 0.522738
50 1 0.252902 0.749205 0.500977
54 1 0.39333 0.865513 0.615128
58 1 0.747978 0.73023 0.507162
59 1 0.875 0.875 0.625
49 1 0.25073 0.490295 0.764488
53 1 0.383228 0.595816 0.892711
57 1 0.757375 0.484682 0.752716
61 1 0.875 0.625 0.875
48 1 0 0.75 0.75
52 1 0.125 0.875 0.875
56 1 0.498305 0.741481 0.748236
60 1 0.625 0.875 0.875
ITEM: TIMESTEP
1200
ITEM: NUMBER OF ATOMS
61
ITEM: BOX BOUNDS pp pp pp
0.0000000000000000e+00 1.0859999999999999e+01
0.0000000000000000e+00 1.0859999999999999e+01
0.0000000000000000e+00 1.0859999999999999e+01
ITEM: ATOMS id type xs ys zs
1 1 0 0 0
5 1 0.125 0.125 0.125
9 1 0.5 0 0
13 1 0.625 0.125 0.125
4 1 0.25 0.25 0
8 1 0.360698 0.361473 0.130412
12 1 0.75 0.25 0
14 1 0.875 0.375 0.125
3 1 0.25 0 0.25
7 1 0.368713 0.127483 0.387102
11 1 0.75 0 0.25
15 1 0.875 0.125 0.375
2 1 0 0.25 0.25
6 1 0.127946 0.368809 0.366849
10 1 0.462184 0.203133 0.223704
16 1 0 0 0.5
20 1 0.125 0.125 0.625
24 1 0.491825 -0.00558177 0.499445
28 1 0.613353 0.1254 0.620475
23 1 0.355597 0.345331 0.635517
19 1 0.880655 0.36892 0.624573
27 1 0.770267 0.229737 0.487249
18 1 0.25 0 0.75
22 1 0.375 0.125 0.875
26 1 0.75 0 0.75
30 1 0.875 0.125 0.875
17 1 0 0.25 0.75
21 1 0.125 0.375 0.875
25 1 0.511115 0.248971 0.740241
29 1 0.633748 0.35268 0.874402
31 1 0 0.5 0
35 1 0.125 0.625 0.125
39 1 0.498329 0.48811 0.0150269
43 1 0.630295 0.628785 0.136786
34 1 0.25 0.75 0
38 1 0.375 0.875 0.125
42 1 0.75 0.75 0
46 1 0.875 0.875 0.125
33 1 0.244288 0.477435 0.237178
37 1 0.374334 0.60654 0.359029
41 1 0.743565 0.485716 0.247728
45 1 0.884492 0.606212 0.380503
32 1 0 0.75 0.25
36 1 0.125 0.875 0.375
40 1 0.503543 0.757881 0.261005
44 1 0.634248 0.874793 0.380446
47 1 0.0104912 0.509224 0.493973
51 1 0.135286 0.624211 0.633496
55 1 0.48372 0.48626 0.519567
50 1 0.256669 0.744833 0.506079
54 1 0.388513 0.867081 0.620806
58 1 0.741261 0.728175 0.506835
59 1 0.875 0.875 0.625
49 1 0.248209 0.49166 0.763478
53 1 0.387037 0.596391 0.883209
57 1 0.74923 0.482304 0.762816
61 1 0.875 0.625 0.875
48 1 0 0.75 0.75
52 1 0.125 0.875 0.875
56 1 0.489006 0.74954 0.748442
60 1 0.625 0.875 0.875
ITEM: TIMESTEP
1300
ITEM: NUMBER OF ATOMS
61
ITEM: BOX BOUNDS pp pp pp
0.0000000000000000e+00 1.0859999999999999e+01
0.0000000000000000e+00 1.0859999999999999e+01
0.0000000000000000e+00 1.0859999999999999e+01
ITEM: ATOMS id type xs ys zs
1 1 0 0 0
5 1 0.125 0.125 0.125
9 1 0.5 0 0
13 1 0.625 0.125 0.125
4 1 0.25 0.25 0
8 1 0.358334 0.363718 0.133398
12 1 0.75 0.25 0
14 1 0.875 0.375 0.125
3 1 0.25 0 0.25
7 1 0.358402 0.126655 0.384631
11 1 0.75 0 0.25
15 1 0.875 0.125 0.375
2 1 0 0.25 0.25
6 1 0.122288 0.364079 0.361564
10 1 0.461691 0.21457 0.21899
16 1 0 0 0.5
20 1 0.125 0.125 0.625
24 1 0.501372 -0.00742491 0.504917
28 1 0.623198 0.117969 0.617113
23 1 0.36101 0.346007 0.639305
19 1 0.887331 0.362669 0.621
27 1 0.762751 0.233247 0.498879
18 1 0.25 0 0.75
22 1 0.375 0.125 0.875
26 1 0.75 0 0.75
30 1 0.875 0.125 0.875
17 1 0 0.25 0.75
21 1 0.125 0.375 0.875
25 1 0.510855 0.260591 0.742126
29 1 0.621703 0.35095 0.871478
31 1 0 0.5 0
35 1 0.125 0.625 0.125
39 1 0.504277 0.49422 0.0171812
43 1 0.632192 0.637249 0.132732
34 1 0.25 0.75 0
38 1 0.375 0.875 0.125
42 1 0.75 0.75 0
46 1 0.875 0.875 0.125
33 1 0.242302 0.473548 0.246374
37 1 0.3689 0.602471 0.353409
41 1 0.751252 0.478373 0.248787
45 1 0.879207 0.601078 0.377282
32 1 0 0.75 0.25
36 1 0.125 0.875 0.375
40 1 0.503064 0.754601 0.254008
44 1 0.633462 0.884714 0.384109
47 1 0.000341944 0.503467 0.487277
51 1 0.134299 0.620907 0.638261
55 1 0.482958 0.490561 0.514922
50 1 0.260536 0.739498 0.50604
54 1 0.373642 0.871576 0.627905
58 1 0.738976 0.728745 0.505076
59 1 0.875 0.875 0.625
49 1 0.249161 0.493055 0.75637
53 1 0.386383 0.606877 0.870442
57 1 0.745178 0.482814 0.769731
61 1 0.875 0.625 0.875
48 1 0 0.75 0.75
52 1 0.125 0.875 0.875
56 1 0.485554 0.75367 0.756376
60 1 0.625 0.875 0.875
ITEM: TIMESTEP
1400
ITEM: NUMBER OF ATOMS
61
ITEM: BOX BOUNDS pp pp pp
0.0000000000000000e+00 1.0859999999999999e+01
0.0000000000000000e+00 1.0859999999999999e+01
0.0000000000000000e+00 1.0859999999999999e+01
ITEM: ATOMS id type xs ys zs
1 1 0 0 0
5 1 0.125 0.125 0.125
9 1 0.5 0 0
13 1 0.625 0.125 0.125
4 1 0.25 0.25 0
8 1 0.363935 0.369387 0.12675
12 1 0.75 0.25 0
14 1 0.875 0.375 0.125
3 1 0.25 0 0.25
7 1 0.350996 0.123009 0.383421
11 1 0.75 0 0.25
15 1 0.875 0.125 0.375
2 1 0 0.25 0.25
6 1 0.114636 0.361099 0.366348
10 1 0.462669 0.22335 0.220275
16 1 0 0 0.5
20 1 0.125 0.125 0.625
24 1 0.506306 -0.00546644 0.508274
28 1 0.63623 0.112883 0.617426
23 1 0.362832 0.353614 0.63737
19 1 0.887906 0.362542 0.616034
27 1 0.74991 0.243039 0.516017
18 1 0.25 0 0.75
22 1 0.375 0.125 0.875
26 1 0.75 0 0.75
30 1 0.875 0.125 0.875
17 1 0 0.25 0.75
21 1 0.125 0.375 0.875
25 1 0.505049 0.257893 0.741581
29 1 0.61243 0.361436 0.879617
31 1 0 0.5 0
35 1 0.125 0.625 0.125
39 1 0.510607 0.497594 0.0172019
43 1 0.633262 0.638937 0.129288
34 1 0.25 0.75 0
38 1 0.375 0.875 0.125
42 1 0.75 0.75 0
46 1 0.875 0.875 0.125
33 1 0.236806 0.480933 0.254937
37 1 0.367329 0.602277 0.355051
41 1 0.755679 0.477409 0.252075
45 1 0.860571 0.611359 0.363209
32 1 0 0.75 0.25
36 1 0.125 0.875 0.375
40 1 0.501484 0.751203 0.247937
44 1 0.630945 0.88786 0.386855
47 1 0.00442152 0.484803 0.494735
51 1 0.128825 0.618126 0.636414
55 1 0.478913 0.494221 0.509476
50 1 0.261157 0.733703 0.501597
54 1 0.358067 0.877256 0.633843
58 1 0.741291 0.731854 0.501498
59 1 0.875 0.875 0.625
49 1 0.253192 0.492622 0.747785
53 1 0.382168 0.620026 0.86249
57 1 0.747448 0.484249 0.771011
61 1 0.875 0.625 0.875
48 1 0 0.75 0.75
52 1 0.125 0.875 0.875
56 1 0.487511 0.758001 0.765857
60 1 0.625 0.875 0.875
ITEM: TIMESTEP
1500
ITEM: NUMBER OF ATOMS
61
ITEM: BOX BOUNDS pp pp pp
0.0000000000000000e+00 1.0859999999999999e+01
0.0000000000000000e+00 1.0859999999999999e+01
0.0000000000000000e+00 1.0859999999999999e+01
ITEM: ATOMS id type xs ys zs
1 1 0 0 0
5 1 0.125 0.125 0.125
9 1 0.5 0 0
13 1 0.625 0.125 0.125
4 1 0.25 0.25 0
8 1 0.370595 0.381928 0.116661
12 1 0.75 0.25 0
14 1 0.875 0.375 0.125
3 1 0.25 0 0.25
7 1 0.350229 0.119213 0.384299
11 1 0.75 0 0.25
15 1 0.875 0.125 0.375
2 1 0 0.25 0.25
6 1 0.111595 0.359723 0.378043
10 1 0.465558 0.227278 0.228592
16 1 0 0 0.5
20 1 0.125 0.125 0.625
24 1 0.502346 -0.000303792 0.51083
28 1 0.643114 0.110594 0.625122
23 1 0.363289 0.365456 0.627491
19 1 0.881597 0.366487 0.617624
27 1 0.740132 0.2549 0.52507
18 1 0.25 0 0.75
22 1 0.375 0.125 0.875
26 1 0.75 0 0.75
30 1 0.875 0.125 0.875
17 1 0 0.25 0.75
21 1 0.125 0.375 0.875
25 1 0.499374 0.24313 0.741856
29 1 0.607886 0.377756 0.892418
31 1 0 0.5 0
35 1 0.125 0.625 0.125
39 1 0.511983 0.502031 0.0138647
43 1 0.634674 0.632307 0.128648
34 1 0.25 0.75 0
38 1 0.375 0.875 0.125
42 1 0.75 0.75 0
46 1 0.875 0.875 0.125
33 1 0.230921 0.491896 0.256679
37 1 0.370543 0.607551 0.362863
41 1 0.751099 0.480403 0.253054
45 1 0.849565 0.625954 0.35571
32 1 0 0.75 0.25
36 1 0.125 0.875 0.375
40 1 0.499317 0.748982 0.245574
44 1 0.627921 0.882128 0.386056
47 1 0.00680872 0.47321 0.501768
51 1 0.121541 0.615223 0.627288
55 1 0.473109 0.496717 0.504182
50 1 0.25725 0.729566 0.495554
54 1 0.351483 0.878344 0.634577
58 1 0.74547 0.738645 0.497429
59 1 0.875 0.875 0.625
49 1 0.25666 0.492665 0.742863
53 1 0.374204 0.62814 0.865059
57 1 0.75494 0.484719 0.766884
61 1 0.875 0.625 0.875
48 1 0 0.75 0.75
52 1 0.125 0.875 0.875
56 1 0.492131 0.766896 0.768298
60 1 0.625 0.875 0.875
ITEM: TIMESTEP
1600
ITEM: NUMBER OF ATOMS
61
ITEM: BOX BOUNDS pp pp pp
0.0000000000000000e+00 1.0859999999999999e+01
0.0000000000000000e+00 1.0859999999999999e+01
0.0000000000000000e+00 1.0859999999999999e+01
ITEM: ATOMS id type xs ys zs
1 1 0 0 0
5 1 0.125 0.125 0.125
9 1 0.5 0 0
13 1 0.625 0.125 0.125
4 1 0.25 0.25 0
8 1 0.374202 0.395222 0.111148
12 1 0.75 0.25 0
14 1 0.875 0.375 0.125
3 1 0.25 0 0.25
7 1 0.356225 0.117209 0.387773
11 1 0.75 0 0.25
15 1 0.875 0.125 0.375
2 1 0 0.25 0.25
6 1 0.117923 0.357245 0.387606
10 1 0.468871 0.230188 0.239444
16 1 0 0 0.5
20 1 0.125 0.125 0.625
24 1 0.492729 0.00473198 0.512418
28 1 0.638472 0.111971 0.634582
23 1 0.366672 0.37381 0.613988
19 1 0.872064 0.371376 0.629546
27 1 0.73404 0.265039 0.521458
18 1 0.25 0 0.75
22 1 0.375 0.125 0.875
26 1 0.75 0 0.75
30 1 0.875 0.125 0.875
17 1 0 0.25 0.75
21 1 0.125 0.375 0.875
25 1 0.495251 0.228834 0.744521
29 1 0.610595 0.386764 0.896337
31 1 0 0.5 0
35 1 0.125 0.625 0.125
39 1 0.504687 0.514026 0.00958728
43 1 0.635759 0.621532 0.130952
34 1 0.25 0.75 0
38 1 0.375 0.875 0.125
42 1 0.75 0.75 0
46 1 0.875 0.875 0.125
33 1 0.227916 0.50176 0.254165
37 1 0.374887 0.617173 0.37016
41 1 0.739761 0.484279 0.250591
45 1 0.853548 0.637169 0.357866
32 1 0 0.75 0.25
36 1 0.125 0.875 0.375
40 1 0.498118 0.747213 0.247427
44 1 0.623039 0.872109 0.381639
47 1 -0.000633892 0.480204 0.503951
51 1 0.115347 0.61181 0.615041
55 1 0.470536 0.498023 0.49981
50 1 0.248455 0.729983 0.491343
54 1 0.356143 0.87274 0.627696
58 1 0.749184 0.749751 0.496332
59 1 0.875 0.875 0.625
49 1 0.255094 0.496387 0.74317
53 1 0.367294 0.631581 0.875052
57 1 0.763308 0.484409 0.7608
61 1 0.875 0.625 0.875
48 1 0 0.75 0.75
52 1 0.125 0.875 0.875
56 1 0.493371 0.775161 0.762143
60 1 0.625 0.875 0.875
ITEM: TIMESTEP
1700
ITEM: NUMBER OF ATOMS
61
ITEM: BOX BOUNDS pp pp pp
0.0000000000000000e+00 1.0859999999999999e+01
0.0000000000000000e+00 1.0859999999999999e+01