ITEM: TIMESTEP
0
ITEM: NUMBER OF ATOMS
61
ITEM: BOX BOUNDS pp pp pp
0.0000000000000000e+00 1.0859999999999999e+01
0.0000000000000000e+00 1.0859999999999999e+01
0.0000000000000000e+00 1.0859999999999999e+01
ITEM: ATOMS id type xs ys zs
1 1 0 0 0
5 1 0.125 0.125 0.125
9 1 0.5 0 0
13 1 0.625 0.125 0.125
4 1 0.25 0.25 0
8 1 0.375 0.375 0.125
12 1 0.75 0.25 0
16 1 0.875 0.375 0.125
3 1 0.25 0 0.25
7 1 0.375 0.125 0.375
11 1 0.75 0 0.25
15 1 0.875 0.125 0.375
2 1 0 0.25 0.25
6 1 0.125 0.375 0.375
10 1 0.5 0.25 0.25
14 1 0.625 0.375 0.375
17 1 0 0 0.5
21 1 0.125 0.125 0.625
25 1 0.5 0 0.5
29 1 0.625 0.125 0.625
24 1 0.375 0.375 0.625
20 1 0.875 0.375 0.625
28 1 0.75 0.25 0.5
19 1 0.25 0 0.75
23 1 0.375 0.125 0.875
27 1 0.75 0 0.75
31 1 0.875 0.125 0.875
18 1 0 0.25 0.75
22 1 0.125 0.375 0.875
26 1 0.5 0.25 0.75
30 1 0.625 0.375 0.875
32 1 0 0.5 0
36 1 0.125 0.625 0.125
40 1 0.5 0.5 0
44 1 0.625 0.625 0.125
35 1 0.25 0.75 0
39 1 0.375 0.875 0.125
43 1 0.75 0.75 0
47 1 0.875 0.875 0.125
34 1 0.25 0.5 0.25
38 1 0.375 0.625 0.375
42 1 0.75 0.5 0.25
46 1 0.875 0.625 0.375
33 1 0 0.75 0.25
37 1 0.125 0.875 0.375
41 1 0.5 0.75 0.25
45 1 0.625 0.875 0.375
48 1 0 0.5 0.5
52 1 0.125 0.625 0.625
51 1 0.25 0.75 0.5
55 1 0.375 0.875 0.625
59 1 0.75 0.75 0.5
60 1 0.875 0.875 0.625
50 1 0.25 0.5 0.75
54 1 0.375 0.625 0.875
56 1 0.875 0.625 0.875
58 1 0.75 0.5 0.75
49 1 0 0.75 0.75
53 1 0.125 0.875 0.875
57 1 0.5 0.75 0.75
61 1 0.625 0.875 0.875
ITEM: TIMESTEP
100
ITEM: NUMBER OF ATOMS
61
ITEM: BOX BOUNDS pp pp pp
0.0000000000000000e+00 1.0859999999999999e+01
0.0000000000000000e+00 1.0859999999999999e+01
0.0000000000000000e+00 1.0859999999999999e+01
ITEM: ATOMS id type xs ys zs
1 1 0 0 0
5 1 0.125 0.125 0.125
9 1 0.5 0 0
13 1 0.625 0.125 0.125
4 1 0.25 0.25 0
8 1 0.375713 0.374766 0.120141
12 1 0.75 0.25 0
16 1 0.875 0.375 0.125
3 1 0.25 0 0.25
7 1 0.373052 0.121844 0.380261
11 1 0.75 0 0.25
15 1 0.875 0.125 0.375
2 1 0 0.25 0.25
6 1 0.121908 0.372245 0.369889
10 1 0.493 0.250674 0.251631
14 1 0.627035 0.380661 0.374534
17 1 0 0 0.5
21 1 0.125 0.125 0.625
25 1 0.494721 -0.00082589 0.501545
29 1 0.62444 0.12628 0.625948
24 1 0.380445 0.367499 0.623543
20 1 0.868099 0.379958 0.628075
28 1 0.751284 0.247724 0.483166
19 1 0.25 0 0.75
23 1 0.375 0.125 0.875
27 1 0.75 0 0.75
31 1 0.875 0.125 0.875
18 1 0 0.25 0.75
22 1 0.125 0.375 0.875
26 1 0.505345 0.249727 0.751518
30 1 0.622524 0.375732 0.879789
32 1 0 0.5 0
36 1 0.125 0.625 0.125
40 1 0.502933 0.500924 -0.00473622
44 1 0.61695 0.631905 0.130826
35 1 0.25 0.75 0
39 1 0.375 0.875 0.125
43 1 0.75 0.75 0
47 1 0.875 0.875 0.125
34 1 0.247161 0.490036 0.241581
38 1 0.37818 0.63039 0.37309
42 1 0.753572 0.493598 0.255891
46 1 0.875563 0.626418 0.373474
33 1 0 0.75 0.25
37 1 0.125 0.875 0.375
41 1 0.50476 0.753057 0.249608
45 1 0.633646 0.868197 0.37907
48 1 0.00956655 0.501584 0.504743
52 1 0.127037 0.620679 0.619836
51 1 0.252775 0.750569 0.507141
55 1 0.37263 0.870635 0.629528
59 1 0.750069 0.754144 0.49244
60 1 0.875 0.875 0.625
50 1 0.252896 0.501882 0.755256
54 1 0.372168 0.629757 0.882568
56 1 0.875 0.625 0.875
58 1 0.742114 0.501531 0.749815
49 1 0 0.75 0.75
53 1 0.125 0.875 0.875
57 1 0.496093 0.754297 0.745379
61 1 0.625 0.875 0.875
ITEM: TIMESTEP
200
ITEM: NUMBER OF ATOMS
61
ITEM: BOX BOUNDS pp pp pp
0.0000000000000000e+00 1.0859999999999999e+01
0.0000000000000000e+00 1.0859999999999999e+01
0.0000000000000000e+00 1.0859999999999999e+01
ITEM: ATOMS id type xs ys zs
1 1 0 0 0
5 1 0.125 0.125 0.125
9 1 0.5 0 0
13 1 0.625 0.125 0.125
4 1 0.25 0.25 0
8 1 0.376962 0.373641 0.115011
12 1 0.75 0.25 0
16 1 0.875 0.375 0.125
3 1 0.25 0 0.25
7 1 0.370395 0.119708 0.383051
11 1 0.75 0 0.25
15 1 0.875 0.125 0.375
2 1 0 0.25 0.25
6 1 0.120131 0.370937 0.366343
10 1 0.489028 0.25159 0.253967
14 1 0.625812 0.382841 0.37355
17 1 0 0 0.5
21 1 0.125 0.125 0.625
25 1 0.492618 -0.00369651 0.504382
29 1 0.625558 0.126843 0.624307
24 1 0.384307 0.362385 0.624249
20 1 0.863346 0.382419 0.628154
28 1 0.749844 0.248396 0.475158
19 1 0.25 0 0.75
23 1 0.375 0.125 0.875
27 1 0.75 0 0.75
31 1 0.875 0.125 0.875
18 1 0 0.25 0.75
22 1 0.125 0.375 0.875
26 1 0.508311 0.2494 0.753543
30 1 0.622818 0.375876 0.881328
32 1 0 0.5 0
36 1 0.125 0.625 0.125
40 1 0.502808 0.503983 -0.0045368
44 1 0.615831 0.632875 0.132845
35 1 0.25 0.75 0
39 1 0.375 0.875 0.125
43 1 0.75 0.75 0
47 1 0.875 0.875 0.125
34 1 0.24594 0.484769 0.237067
38 1 0.378486 0.634102 0.369942
42 1 0.755966 0.492497 0.257899
46 1 0.877546 0.626213 0.374073
33 1 0 0.75 0.25
37 1 0.125 0.875 0.375
41 1 0.505748 0.757851 0.252215
45 1 0.635205 0.869119 0.378617
48 1 0.0128627 0.499871 0.505087
52 1 0.131613 0.619977 0.621377
51 1 0.254218 0.749877 0.509285
55 1 0.37017 0.870829 0.632069
59 1 0.755534 0.754094 0.490421
60 1 0.875 0.875 0.625
50 1 0.256153 0.501797 0.757396
54 1 0.372823 0.633019 0.884789
56 1 0.875 0.625 0.875
58 1 0.735388 0.503549 0.751446
49 1 0 0.75 0.75
53 1 0.125 0.875 0.875
57 1 0.493863 0.755741 0.745934
61 1 0.625 0.875 0.875
ITEM: TIMESTEP
300
ITEM: NUMBER OF ATOMS
61
ITEM: BOX BOUNDS pp pp pp
0.0000000000000000e+00 1.0859999999999999e+01
0.0000000000000000e+00 1.0859999999999999e+01
0.0000000000000000e+00 1.0859999999999999e+01
ITEM: ATOMS id type xs ys zs
1 1 0 0 0
5 1 0.125 0.125 0.125
9 1 0.5 0 0
13 1 0.625 0.125 0.125
4 1 0.25 0.25 0
8 1 0.378722 0.371744 0.111179
12 1 0.75 0.25 0
16 1 0.875 0.375 0.125
3 1 0.25 0 0.25
7 1 0.367442 0.119066 0.383406
11 1 0.75 0 0.25
15 1 0.875 0.125 0.375
2 1 0 0.25 0.25
6 1 0.120872 0.371419 0.365606
10 1 0.489076 0.252269 0.25625
14 1 0.620116 0.381812 0.372021
17 1 0 0 0.5
21 1 0.125 0.125 0.625
25 1 0.494304 -0.00750645 0.507604
29 1 0.628101 0.126492 0.620286
24 1 0.385831 0.36078 0.627061
20 1 0.8612 0.381674 0.625093
28 1 0.745473 0.252231 0.478667
19 1 0.25 0 0.75
23 1 0.375 0.125 0.875
27 1 0.75 0 0.75
31 1 0.875 0.125 0.875
18 1 0 0.25 0.75
22 1 0.125 0.375 0.875
26 1 0.50871 0.248093 0.755995
30 1 0.625117 0.375717 0.880211
32 1 0 0.5 0
36 1 0.125 0.625 0.125
40 1 0.500269 0.508478 0.000476364
44 1 0.62215 0.628279 0.131443
35 1 0.25 0.75 0
39 1 0.375 0.875 0.125
43 1 0.75 0.75 0
47 1 0.875 0.875 0.125
34 1 0.246883 0.485754 0.237072
38 1 0.375016 0.635057 0.36595
42 1 0.756796 0.497525 0.255219
46 1 0.881789 0.623496 0.376459
33 1 0 0.75 0.25
37 1 0.125 0.875 0.375
41 1 0.502916 0.762873 0.255925
45 1 0.63037 0.877615 0.375525
48 1 0.00959059 0.495706 0.501802
52 1 0.1371 0.622118 0.629383
51 1 0.253859 0.748511 0.505344
55 1 0.368428 0.87531 0.631969
59 1 0.764356 0.750797 0.493978
60 1 0.875 0.875 0.625
50 1 0.259858 0.499268 0.756117
54 1 0.377162 0.633589 0.880573
56 1 0.875 0.625 0.875
58 1 0.731399 0.506412 0.754176
49 1 0 0.75 0.75
53 1 0.125 0.875 0.875
57 1 0.494188 0.754082 0.75211
61 1 0.625 0.875 0.875
ITEM: TIMESTEP
400
ITEM: NUMBER OF ATOMS
61
ITEM: BOX BOUNDS pp pp pp
0.0000000000000000e+00 1.0859999999999999e+01
0.0000000000000000e+00 1.0859999999999999e+01
0.0000000000000000e+00 1.0859999999999999e+01
ITEM: ATOMS id type xs ys zs
1 1 0 0 0
5 1 0.125 0.125 0.125
9 1 0.5 0 0
13 1 0.625 0.125 0.125
4 1 0.25 0.25 0
8 1 0.380164 0.370095 0.11143
12 1 0.75 0.25 0
16 1 0.875 0.375 0.125
3 1 0.25 0 0.25
7 1 0.366114 0.119489 0.382751
11 1 0.75 0 0.25
15 1 0.875 0.125 0.375
2 1 0 0.25 0.25
6 1 0.123981 0.372942 0.367399
10 1 0.491784 0.251652 0.257026
14 1 0.612793 0.380232 0.369503
17 1 0 0 0.5
21 1 0.125 0.125 0.625
25 1 0.498252 -0.00821999 0.508604
29 1 0.630048 0.125511 0.616488
24 1 0.385077 0.362533 0.631181
20 1 0.860945 0.378783 0.62106
28 1 0.740989 0.257028 0.49056
19 1 0.25 0 0.75
23 1 0.375 0.125 0.875
27 1 0.75 0 0.75
31 1 0.875 0.125 0.875
18 1 0 0.25 0.75
22 1 0.125 0.375 0.875
26 1 0.50794 0.245227 0.757695
30 1 0.626144 0.376118 0.879463
32 1 0 0.5 0
36 1 0.125 0.625 0.125
40 1 0.498828 0.511517 0.00593082
44 1 0.631253 0.623661 0.130069
35 1 0.25 0.75 0
39 1 0.375 0.875 0.125
43 1 0.75 0.75 0
47 1 0.875 0.875 0.125
34 1 0.250305 0.491627 0.240325
38 1 0.368679 0.633063 0.361924
42 1 0.75509 0.504893 0.250394
46 1 0.887472 0.619024 0.378713
33 1 0 0.75 0.25
37 1 0.125 0.875 0.375
41 1 0.499334 0.764226 0.25638
45 1 0.624889 0.886385 0.375716
48 1 0.00416871 0.49246 0.499396
52 1 0.139432 0.624078 0.637657
51 1 0.252182 0.748152 0.49847
55 1 0.369303 0.878321 0.630244
59 1 0.769821 0.748576 0.498333
60 1 0.875 0.875 0.625
50 1 0.264134 0.49458 0.753074
54 1 0.381431 0.630956 0.874067
56 1 0.875 0.625 0.875
58 1 0.732059 0.50975 0.755932
49 1 0 0.75 0.75
53 1 0.125 0.875 0.875
57 1 0.496389 0.75289 0.759205
61 1 0.625 0.875 0.875
ITEM: TIMESTEP
500
ITEM: NUMBER OF ATOMS
61
ITEM: BOX BOUNDS pp pp pp
0.0000000000000000e+00 1.0859999999999999e+01
0.0000000000000000e+00 1.0859999999999999e+01
0.0000000000000000e+00 1.0859999999999999e+01
ITEM: ATOMS id type xs ys zs
1 1 0 0 0
5 1 0.125 0.125 0.125
9 1 0.5 0 0
13 1 0.625 0.125 0.125
4 1 0.25 0.25 0
8 1 0.380488 0.369686 0.117117
12 1 0.75 0.25 0
16 1 0.875 0.375 0.125
3 1 0.25 0 0.25
7 1 0.367794 0.120599 0.381977
11 1 0.75 0 0.25
15 1 0.875 0.125 0.375
2 1 0 0.25 0.25
6 1 0.128238 0.374655 0.370522
10 1 0.494696 0.248208 0.254711
14 1 0.608424 0.380451 0.367739
17 1 0 0 0.5
21 1 0.125 0.125 0.625
25 1 0.501533 -0.00294818 0.506757
29 1 0.629481 0.123655 0.616696
24 1 0.383554 0.365704 0.634967
20 1 0.862508 0.376313 0.619716
28 1 0.738176 0.260753 0.502921
19 1 0.25 0 0.75
23 1 0.375 0.125 0.875
27 1 0.75 0 0.75
31 1 0.875 0.125 0.875
18 1 0 0.25 0.75
22 1 0.125 0.375 0.875
26 1 0.507372 0.241838 0.75744
30 1 0.624548 0.377315 0.880417
32 1 0 0.5 0
36 1 0.125 0.625 0.125
40 1 0.500369 0.511168 0.00864739
44 1 0.637299 0.624621 0.128883
35 1 0.25 0.75 0
39 1 0.375 0.875 0.125
43 1 0.75 0.75 0
47 1 0.875 0.875 0.125
34 1 0.254721 0.499148 0.244565
38 1 0.362467 0.629636 0.358782
42 1 0.752883 0.50842 0.247668
46 1 0.89083 0.616067 0.378656
33 1 0 0.75 0.25
37 1 0.125 0.875 0.375
41 1 0.497807 0.760624 0.253266
45 1 0.621813 0.889114 0.379089
48 1 0.00119849 0.490721 0.500728
52 1 0.13796 0.624855 0.64122
51 1 0.249462 0.749032 0.49283
55 1 0.373074 0.876096 0.627929
59 1 0.769301 0.74798 0.500206
60 1 0.875 0.875 0.625
50 1 0.267379 0.489406 0.750973
54 1 0.3819 0.625239 0.870869
56 1 0.875 0.625 0.875
58 1 0.73754 0.512123 0.755392
49 1 0 0.75 0.75
53 1 0.125 0.875 0.875
57 1 0.49996 0.754824 0.761575
61 1 0.625 0.875 0.875
ITEM: TIMESTEP
600
ITEM: NUMBER OF ATOMS
61
ITEM: BOX BOUNDS pp pp pp
0.0000000000000000e+00 1.0859999999999999e+01
0.0000000000000000e+00 1.0859999999999999e+01
0.0000000000000000e+00 1.0859999999999999e+01
ITEM: ATOMS id type xs ys zs
1 1 0 0 0
5 1 0.125 0.125 0.125
9 1 0.5 0 0
13 1 0.625 0.125 0.125
4 1 0.25 0.25 0
8 1 0.379377 0.371249 0.126696
12 1 0.75 0.25 0
16 1 0.875 0.375 0.125
3 1 0.25 0 0.25
7 1 0.372105 0.122317 0.380657
11 1 0.75 0 0.25
15 1 0.875 0.125 0.375
2 1 0 0.25 0.25
6 1 0.132261 0.376159 0.373775
10 1 0.496805 0.242273 0.249884
14 1 0.609171 0.382646 0.368253
17 1 0 0 0.5
21 1 0.125 0.125 0.625
25 1 0.501103 0.00630261 0.503432
29 1 0.626827 0.121452 0.623052
24 1 0.383911 0.367174 0.636115
20 1 0.866516 0.376522 0.624398
28 1 0.73636 0.262039 0.508465
19 1 0.25 0 0.75
23 1 0.375 0.125 0.875
27 1 0.75 0 0.75
31 1 0.875 0.125 0.875
18 1 0 0.25 0.75
22 1 0.125 0.375 0.875
26 1 0.507199 0.239933 0.755346
30 1 0.621907 0.379383 0.881615
32 1 0 0.5 0
36 1 0.125 0.625 0.125
40 1 0.503928 0.507263 0.00877567
44 1 0.636456 0.632011 0.126946
35 1 0.25 0.75 0
39 1 0.375 0.875 0.125
43 1 0.75 0.75 0
47 1 0.875 0.875 0.125
34 1 0.25575 0.503176 0.246217
38 1 0.361026 0.629001 0.359197
42 1 0.752516 0.505072 0.2495
46 1 0.889105 0.616781 0.376086
33 1 0 0.75 0.25
37 1 0.125 0.875 0.375
41 1 0.499371 0.75316 0.248763
45 1 0.622521 0.883268 0.38221
48 1 0.00310681 0.490285 0.505595
52 1 0.134195 0.623844 0.638573
51 1 0.246697 0.749715 0.491238
55 1 0.378347 0.870738 0.62518
59 1 0.763292 0.748348 0.498464
60 1 0.875 0.875 0.625
50 1 0.266101 0.486952 0.75201
54 1 0.379751 0.619172 0.872339
56 1 0.875 0.625 0.875
58 1 0.745824 0.511319 0.752806
49 1 0 0.75 0.75
53 1 0.125 0.875 0.875
57 1 0.502574 0.757458 0.75798
61 1 0.625 0.875 0.875
ITEM: TIMESTEP
700
ITEM: NUMBER OF ATOMS
61
ITEM: BOX BOUNDS pp pp pp
0.0000000000000000e+00 1.0859999999999999e+01
0.0000000000000000e+00 1.0859999999999999e+01
0.0000000000000000e+00 1.0859999999999999e+01
ITEM: ATOMS id type xs ys zs
1 1 0 0 0
5 1 0.125 0.125 0.125
9 1 0.5 0 0
13 1 0.625 0.125 0.125
4 1 0.25 0.25 0
8 1 0.377375 0.374449 0.135569
12 1 0.75 0.25 0
16 1 0.875 0.375 0.125
3 1 0.25 0 0.25
7 1 0.376642 0.12495 0.377311
11 1 0.75 0 0.25
15 1 0.875 0.125 0.375
2 1 0 0.25 0.25
6 1 0.134735 0.376887 0.376299
10 1 0.498683 0.237472 0.246137
14 1 0.613552 0.3844 0.370212
17 1 0 0 0.5
21 1 0.125 0.125 0.625
25 1 0.498173 0.0127048 0.500403
29 1 0.62409 0.120909 0.632632
24 1 0.386471 0.366373 0.634075
20 1 0.872187 0.378313 0.633404
28 1 0.735874 0.260671 0.507255
19 1 0.25 0 0.75
23 1 0.375 0.125 0.875
27 1 0.75 0 0.75
31 1 0.875 0.125 0.875
18 1 0 0.25 0.75
22 1 0.125 0.375 0.875
26 1 0.506414 0.241215 0.753623
30 1 0.621428 0.381289 0.880453
32 1 0 0.5 0
36 1 0.125 0.625 0.125
40 1 0.507021 0.501326 0.0083149
44 1 0.630337 0.638716 0.126099
35 1 0.25 0.75 0
39 1 0.375 0.875 0.125
43 1 0.75 0.75 0
47 1 0.875 0.875 0.125
34 1 0.251324 0.501923 0.245257
38 1 0.365805 0.632413 0.363941
42 1 0.752496 0.498476 0.25312
46 1 0.883285 0.619615 0.373748
33 1 0 0.75 0.25
37 1 0.125 0.875 0.375
41 1 0.502749 0.745844 0.245375
45 1 0.625529 0.872243 0.382921
48 1 0.00851875 0.492455 0.511072
52 1 0.129523 0.620938 0.630911
51 1 0.245548 0.748952 0.494599
55 1 0.382282 0.867142 0.621298
59 1 0.754418 0.749381 0.494687
60 1 0.875 0.875 0.625
50 1 0.259307 0.488585 0.755207
54 1 0.378159 0.616208 0.876952
56 1 0.875 0.625 0.875
58 1 0.753938 0.506505 0.749739
49 1 0 0.75 0.75
53 1 0.125 0.875 0.875
57 1 0.502593 0.756381 0.751503
61 1 0.625 0.875 0.875
ITEM: TIMESTEP
800
ITEM: NUMBER OF ATOMS
61
ITEM: BOX BOUNDS pp pp pp
0.0000000000000000e+00 1.0859999999999999e+01
0.0000000000000000e+00 1.0859999999999999e+01
0.0000000000000000e+00 1.0859999999999999e+01
ITEM: ATOMS id type xs ys zs
1 1 0 0 0
5 1 0.125 0.125 0.125
9 1 0.5 0 0
13 1 0.625 0.125 0.125
4 1 0.25 0.25 0
8 1 0.37603 0.377032 0.138803
12 1 0.75 0.25 0
16 1 0.875 0.375 0.125
3 1 0.25 0 0.25
7 1 0.37837 0.128031 0.371376
11 1 0.75 0 0.25
15 1 0.875 0.125 0.375
2 1 0 0.25 0.25
6 1 0.134292 0.376192 0.377957
10 1 0.500641 0.238167 0.246402
14 1 0.61858 0.382947 0.372815
17 1 0 0 0.5
21 1 0.125 0.125 0.625
25 1 0.497243 0.0120223 0.499537
29 1 0.62228 0.122846 0.639046
24 1 0.388179 0.366104 0.630555
20 1 0.878641 0.378483 0.639604
28 1 0.738562 0.257166 0.503772
19 1 0.25 0 0.75
23 1 0.375 0.125 0.875
27 1 0.75 0 0.75
31 1 0.875 0.125 0.875
18 1 0 0.25 0.75
22 1 0.125 0.375 0.875
26 1 0.504097 0.246127 0.755257
30 1 0.625278 0.381031 0.875862
32 1 0 0.5 0
36 1 0.125 0.625 0.125
40 1 0.507331 0.496139 0.00924908
44 1 0.624622 0.636637 0.125636
35 1 0.25 0.75 0
39 1 0.375 0.875 0.125
43 1 0.75 0.75 0
47 1 0.875 0.875 0.125
34 1 0.245089 0.499776 0.246811
38 1 0.372698 0.635164 0.369714
42 1 0.751383 0.493779 0.254564
46 1 0.876181 0.622428 0.374245
33 1 0 0.75 0.25
37 1 0.125 0.875 0.375
41 1 0.504309 0.744614 0.245971
45 1 0.62651 0.86301 0.379349
48 1 0.0126167 0.496107 0.513212
52 1 0.126053 0.618508 0.62317
51 1 0.246636 0.747409 0.501217
55 1 0.382443 0.868029 0.616218
59 1 0.747413 0.749394 0.492854
60 1 0.875 0.875 0.625
50 1 0.250785 0.493065 0.756498
54 1 0.377973 0.617132 0.882251
56 1 0.875 0.625 0.875
58 1 0.758773 0.50015 0.749181
49 1 0 0.75 0.75
53 1 0.125 0.875 0.875
57 1 0.501327 0.750338 0.74628
61 1 0.625 0.875 0.875
ITEM: TIMESTEP
900
ITEM: NUMBER OF ATOMS
61
ITEM: BOX BOUNDS pp pp pp
0.0000000000000000e+00 1.0859999999999999e+01
0.0000000000000000e+00 1.0859999999999999e+01
0.0000000000000000e+00 1.0859999999999999e+01
ITEM: ATOMS id type xs ys zs
1 1 0 0 0
5 1 0.125 0.125 0.125
9 1 0.5 0 0
13 1 0.625 0.125 0.125
4 1 0.25 0.25 0
8 1 0.375587 0.376928 0.135587
12 1 0.75 0.25 0
16 1 0.875 0.375 0.125
3 1 0.25 0 0.25
7 1 0.376829 0.129232 0.36558
11 1 0.75 0 0.25
15 1 0.875 0.125 0.375
2 1 0 0.25 0.25
6 1 0.130125 0.373769 0.379264
10 1 0.503223 0.246106 0.249974
14 1 0.62237 0.377301 0.375886
17 1 0 0 0.5
21 1 0.125 0.125 0.625
25 1 0.499815 0.00601512 0.499421
29 1 0.621371 0.126651 0.63875
24 1 0.386445 0.368748 0.627039
20 1 0.885128 0.375948 0.63728
28 1 0.745022 0.251989 0.501346
19 1 0.25 0 0.75
23 1 0.375 0.125 0.875
27 1 0.75 0 0.75
31 1 0.875 0.125 0.875
18 1 0 0.25 0.75
22 1 0.125 0.375 0.875
26 1 0.501008 0.253044 0.759941
30 1 0.631669 0.378056 0.870737
32 1 0 0.5 0
36 1 0.125 0.625 0.125
40 1 0.504897 0.493086 0.0105449
44 1 0.623103 0.625509 0.124585
35 1 0.25 0.75 0
39 1 0.375 0.875 0.125
43 1 0.75 0.75 0
47 1 0.875 0.875 0.125
34 1 0.241685 0.500052 0.252684
38 1 0.377738 0.633957 0.37488
42 1 0.749393 0.493555 0.252605
46 1 0.870567 0.624016 0.377341
33 1 0 0.75 0.25
37 1 0.125 0.875 0.375
41 1 0.501995 0.749893 0.249603
45 1 0.623468 0.861587 0.371549
48 1 0.0100615 0.497502 0.508424
52 1 0.126401 0.620488 0.622085
51 1 0.249001 0.746696 0.506229
55 1 0.379161 0.872356 0.613399
59 1 0.745506 0.746801 0.496187
60 1 0.875 0.875 0.625
50 1 0.24516 0.498822 0.753879
54 1 0.378311 0.620566 0.885397
56 1 0.875 0.625 0.875
58 1 0.759181 0.495561 0.752512
49 1 0 0.75 0.75
53 1 0.125 0.875 0.875
57 1 0.499973 0.741993 0.744113
61 1 0.625 0.875 0.875
ITEM: TIMESTEP
1000
ITEM: NUMBER OF ATOMS
61
ITEM: BOX BOUNDS pp pp pp
0.0000000000000000e+00 1.0859999999999999e+01
0.0000000000000000e+00 1.0859999999999999e+01
0.0000000000000000e+00 1.0859999999999999e+01
ITEM: ATOMS id type xs ys zs
1 1 0 0 0
5 1 0.125 0.125 0.125
9 1 0.5 0 0
13 1 0.625 0.125 0.125
4 1 0.25 0.25 0
8 1 0.374043 0.37435 0.129349
12 1 0.75 0.25 0
16 1 0.875 0.375 0.125
3 1 0.25 0 0.25
7 1 0.374624 0.127553 0.36322
11 1 0.75 0 0.25
15 1 0.875 0.125 0.375
2 1 0 0.25 0.25
6 1 0.123156 0.370126 0.380084
10 1 0.505866 0.257831 0.25374
14 1 0.626121 0.369515 0.379344
17 1 0 0 0.5
21 1 0.125 0.125 0.625
25 1 0.503816 -0.000964998 0.497149
29 1 0.621414 0.130916 0.632881
24 1 0.38109 0.374667 0.624702
20 1 0.887929 0.372898 0.627212
28 1 0.753881 0.246582 0.501535
19 1 0.25 0 0.75
23 1 0.375 0.125 0.875
27 1 0.75 0 0.75
31 1 0.875 0.125 0.875
18 1 0 0.25 0.75
22 1 0.125 0.375 0.875
26 1 0.498031 0.259208 0.763142
30 1 0.636369 0.373556 0.870337
32 1 0 0.5 0
36 1 0.125 0.625 0.125
40 1 0.501454 0.491536 0.00840533
44 1 0.624633 0.613049 0.125362
35 1 0.25 0.75 0
39 1 0.375 0.875 0.125
43 1 0.75 0.75 0
47 1 0.875 0.875 0.125
34 1 0.24357 0.502303 0.260249
38 1 0.379526 0.629066 0.379573
42 1 0.746966 0.49685 0.249421
46 1 0.868327 0.623539 0.380434
33 1 0 0.75 0.25
37 1 0.125 0.875 0.375
41 1 0.496784 0.754331 0.250779
45 1 0.621326 0.868793 0.3657
48 1 0.00198294 0.497595 0.498853
52 1 0.127873 0.626008 0.627009
51 1 0.251596 0.747597 0.505735
55 1 0.374672 0.877559 0.616912
59 1 0.746085 0.7443 0.50288
60 1 0.875 0.875 0.625
50 1 0.24515 0.503884 0.749259
54 1 0.378262 0.624092 0.884929
56 1 0.875 0.625 0.875
58 1 0.75847 0.49338 0.756058
49 1 0 0.75 0.75
53 1 0.125 0.875 0.875
57 1 0.498641 0.735391 0.744337
61 1 0.625 0.875 0.875
ITEM: TIMESTEP
1100
ITEM: NUMBER OF ATOMS
61
ITEM: BOX BOUNDS pp pp pp
0.0000000000000000e+00 1.0859999999999999e+01
0.0000000000000000e+00 1.0859999999999999e+01
0.0000000000000000e+00 1.0859999999999999e+01
ITEM: ATOMS id type xs ys zs
1 1 0 0 0
5 1 0.125 0.125 0.125
9 1 0.5 0 0
13 1 0.625 0.125 0.125
4 1 0.25 0.25 0
8 1 0.370596 0.372078 0.124516
12 1 0.75 0.25 0
16 1 0.875 0.375 0.125
3 1 0.25 0 0.25
7 1 0.375179 0.124582 0.364892
11 1 0.75 0 0.25
15 1 0.875 0.125 0.375
2 1 0 0.25 0.25
6 1 0.116253 0.36699 0.379643
10 1 0.505904 0.2657 0.254285
14 1 0.632579 0.364324 0.383749
17 1 0 0 0.5
21 1 0.125 0.125 0.625
25 1 0.506009 -0.0051125 0.493541
29 1 0.622384 0.133667 0.624837
24 1 0.37376 0.382725 0.624175
20 1 0.884526 0.37071 0.615114
28 1 0.762297 0.242948 0.5039
19 1 0.25 0 0.75
23 1 0.375 0.125 0.875
27 1 0.75 0 0.75
31 1 0.875 0.125 0.875
18 1 0 0.25 0.75
22 1 0.125 0.375 0.875
26 1 0.494897 0.262762 0.761031
30 1 0.636946 0.36973 0.876069
32 1 0 0.5 0
36 1 0.125 0.625 0.125
40 1 0.498374 0.490621 0.0013173
44 1 0.625586 0.606978 0.126938
35 1 0.25 0.75 0
39 1 0.375 0.875 0.125
43 1 0.75 0.75 0
47 1 0.875 0.875 0.125
34 1 0.248935 0.503871 0.266155
38 1 0.379017 0.622915 0.38371
42 1 0.746065 0.498859 0.249236
46 1 0.868661 0.62218 0.38046
33 1 0 0.75 0.25
37 1 0.125 0.875 0.375
41 1 0.491804 0.75316 0.248603
45 1 0.623311 0.87937 0.365684
48 1 -0.00577186 0.499611 0.490515
52 1 0.126485 0.631612 0.630994
51 1 0.253555 0.750061 0.501118
55 1 0.371777 0.88119 0.62559
59 1 0.746114 0.744765 0.509439
60 1 0.875 0.875 0.625
50 1 0.250503 0.506344 0.746238
54 1 0.377129 0.625376 0.88143
56 1 0.875 0.625 0.875
58 1 0.759746 0.492516 0.755885
49 1 0 0.75 0.75
53 1 0.125 0.875 0.875
57 1 0.497535 0.733489 0.745638
61 1 0.625 0.875 0.875
ITEM: TIMESTEP
1200
ITEM: NUMBER OF ATOMS
61
ITEM: BOX BOUNDS pp pp pp
0.0000000000000000e+00 1.0859999999999999e+01
0.0000000000000000e+00 1.0859999999999999e+01
0.0000000000000000e+00 1.0859999999999999e+01
ITEM: ATOMS id type xs ys zs
1 1 0 0 0
5 1 0.125 0.125 0.125
9 1 0.5 0 0
13 1 0.625 0.125 0.125
4 1 0.25 0.25 0
8 1 0.367027 0.373191 0.122724
12 1 0.75 0.25 0
16 1 0.875 0.375 0.125
3 1 0.25 0 0.25
7 1 0.379585 0.12184 0.369116
11 1 0.75 0 0.25
15 1 0.875 0.125 0.375
2 1 0 0.25 0.25
6 1 0.112459 0.366548 0.378389
10 1 0.502942 0.266331 0.251771
14 1 0.641242 0.363531 0.388479
17 1 0 0 0.5
21 1 0.125 0.125 0.625
25 1 0.503907 -0.00340881 0.492437
29 1 0.623341 0.133594 0.618176
24 1 0.367384 0.390376 0.624327
20 1 0.878529 0.370522 0.607841
28 1 0.76666 0.240806 0.505436
19 1 0.25 0 0.75
23 1 0.375 0.125 0.875
27 1 0.75 0 0.75
31 1 0.875 0.125 0.875
18 1 0 0.25 0.75
22 1 0.125 0.375 0.875
26 1 0.49222 0.263271 0.753546
30 1 0.633121 0.36963 0.882588
32 1 0 0.5 0
36 1 0.125 0.625 0.125
40 1 0.496251 0.490019 -0.00737893
44 1 0.622802 0.60996 0.126107
35 1 0.25 0.75 0
39 1 0.375 0.875 0.125
43 1 0.75 0.75 0
47 1 0.875 0.875 0.125
34 1 0.253109 0.501731 0.267883
38 1 0.378639 0.618466 0.387183
42 1 0.748385 0.496086 0.253756
46 1 0.868339 0.623658 0.376083
33 1 0 0.75 0.25
37 1 0.125 0.875 0.375
41 1 0.491377 0.747377 0.24698
45 1 0.627278 0.88435 0.369505
48 1 -0.0086759 0.503091 0.487397
52 1 0.123599 0.634584 0.629409
51 1 0.253951 0.75379 0.497108
55 1 0.373233 0.88052 0.633574
59 1 0.745296 0.748087 0.51291
60 1 0.875 0.875 0.625
50 1 0.2561 0.507209 0.747107
54 1 0.37491 0.623853 0.876405
56 1 0.875 0.625 0.875
58 1 0.76213 0.490834 0.752612
49 1 0 0.75 0.75
53 1 0.125 0.875 0.875
57 1 0.497219 0.737647 0.747329
61 1 0.625 0.875 0.875
ITEM: TIMESTEP
1300
ITEM: NUMBER OF ATOMS
61
ITEM: BOX BOUNDS pp pp pp
0.0000000000000000e+00 1.0859999999999999e+01
0.0000000000000000e+00 1.0859999999999999e+01
0.0000000000000000e+00 1.0859999999999999e+01
ITEM: ATOMS id type xs ys zs
1 1 0 0 0
5 1 0.125 0.125 0.125
9 1 0.5 0 0
13 1 0.625 0.125 0.125
4 1 0.25 0.25 0
8 1 0.365748 0.378036 0.123311
12 1 0.75 0.25 0
16 1 0.875 0.375 0.125
3 1 0.25 0 0.25
7 1 0.385252 0.120503 0.372814
11 1 0.75 0 0.25
15 1 0.875 0.125 0.375
2 1 0 0.25 0.25
6 1 0.11312 0.36996 0.377392
10 1 0.499858 0.261404 0.249487
14 1 0.647657 0.36553 0.390918
17 1 0 0 0.5
21 1 0.125 0.125 0.625
25 1 0.499033 0.00233321 0.495648
29 1 0.623104 0.130534 0.615701
24 1 0.36502 0.394567 0.622899
20 1 0.87574 0.374027 0.609314
28 1 0.76472 0.237883 0.503774
19 1 0.25 0 0.75
23 1 0.375 0.125 0.875
27 1 0.75 0 0.75
31 1 0.875 0.125 0.875
18 1 0 0.25 0.75
22 1 0.125 0.375 0.875
26 1 0.491391 0.261205 0.743337
30 1 0.62679 0.372933 0.882746
32 1 0 0.5 0
36 1 0.125 0.625 0.125
40 1 0.494193 0.491203 -0.0123295
44 1 0.618112 0.617881 0.123356
35 1 0.25 0.75 0
39 1 0.375 0.875 0.125
43 1 0.75 0.75 0
47 1 0.875 0.875 0.125
34 1 0.253233 0.495772 0.264806
38 1 0.37943 0.61711 0.389757
42 1 0.751651 0.491139 0.258848
46 1 0.866536 0.629547 0.369659
33 1 0 0.75 0.25
37 1 0.125 0.875 0.375
41 1 0.49585 0.739833 0.248168
45 1 0.630188 0.880089 0.375371
48 1 -0.00627373 0.506921 0.489904
52 1 0.121919 0.633405 0.622457
51 1 0.253509 0.757634 0.496668
55 1 0.378546 0.875839 0.636455
59 1 0.744187 0.752756 0.511452
60 1 0.875 0.875 0.625
50 1 0.254684 0.508433 0.751246
54 1 0.373294 0.622118 0.871588
56 1 0.875 0.625 0.875
58 1 0.763211 0.48773 0.749171
49 1 0 0.75 0.75
53 1 0.125 0.875 0.875
57 1 0.498321 0.746683 0.750129
61 1 0.625 0.875 0.875
ITEM: TIMESTEP
1400
ITEM: NUMBER OF ATOMS
61
ITEM: BOX BOUNDS pp pp pp
0.0000000000000000e+00 1.0859999999999999e+01
0.0000000000000000e+00 1.0859999999999999e+01
0.0000000000000000e+00 1.0859999999999999e+01
ITEM: ATOMS id type xs ys zs
1 1 0 0 0
5 1 0.125 0.125 0.125
9 1 0.5 0 0
13 1 0.625 0.125 0.125
4 1 0.25 0.25 0
8 1 0.368097 0.382805 0.124607
12 1 0.75 0.25 0
16 1 0.875 0.375 0.125
3 1 0.25 0 0.25
7 1 0.38737 0.121696 0.372759
11 1 0.75 0 0.25
15 1 0.875 0.125 0.375
2 1 0 0.25 0.25
6 1 0.117195 0.376074 0.376836
10 1 0.499188 0.254147 0.24928
14 1 0.647597 0.368447 0.389833
17 1 0 0 0.5
21 1 0.125 0.125 0.625
25 1 0.496414 0.00539065 0.502486
29 1 0.621931 0.125418 0.618497
24 1 0.366409 0.395099 0.619774
20 1 0.877443 0.378282 0.616462
28 1 0.758887 0.235509 0.501469
19 1 0.25 0 0.75
23 1 0.375 0.125 0.875
27 1 0.75 0 0.75
31 1 0.875 0.125 0.875
18 1 0 0.25 0.75
22 1 0.125 0.375 0.875
26 1 0.492777 0.25747 0.733584
30 1 0.620906 0.375519 0.874643
32 1 0 0.5 0
36 1 0.125 0.625 0.125
40 1 0.491433 0.496336 -0.0107734
44 1 0.615665 0.624274 0.119835
35 1 0.25 0.75 0
39 1 0.375 0.875 0.125
43 1 0.75 0.75 0
47 1 0.875 0.875 0.125
34 1 0.250012 0.490589 0.259252
38 1 0.379889 0.6177 0.39029
42 1 0.753885 0.488622 0.259618
46 1 0.864957 0.637359 0.365946
33 1 0 0.75 0.25
37 1 0.125 0.875 0.375
41 1 0.501622 0.735015 0.252619
45 1 0.629248 0.871107 0.381282
48 1 -0.00211769 0.511033 0.494656
52 1 0.122256 0.629798 0.614023
51 1 0.253841 0.759391 0.49993
55 1 0.382971 0.872102 0.632865
59 1 0.744143 0.756627 0.506001
60 1 0.875 0.875 0.625
50 1 0.244591 0.508582 0.754477
54 1 0.373818 0.624014 0.868933
56 1 0.875 0.625 0.875
58 1 0.761167 0.485557 0.748621
49 1 0 0.75 0.75
53 1 0.125 0.875 0.875
57 1 0.501342 0.756306 0.755013
61 1 0.625 0.875 0.875
ITEM: TIMESTEP
1500
ITEM: NUMBER OF ATOMS
61
ITEM: BOX BOUNDS pp pp pp
0.0000000000000000e+00 1.0859999999999999e+01
0.0000000000000000e+00 1.0859999999999999e+01
0.0000000000000000e+00 1.0859999999999999e+01
ITEM: ATOMS id type xs ys zs
1 1 0 0 0
5 1 0.125 0.125 0.125
9 1 0.5 0 0
13 1 0.625 0.125 0.125
4 1 0.25 0.25 0
8 1 0.373412 0.382764 0.125392
12 1 0.75 0.25 0
16 1 0.875 0.375 0.125
3 1 0.25 0 0.25
7 1 0.384094 0.123849 0.369894
11 1 0.75 0 0.25
15 1 0.875 0.125 0.375
2 1 0 0.25 0.25
6 1 0.121454 0.381757 0.376693
10 1 0.501864 0.248487 0.250481
14 1 0.639967 0.370549 0.385492
17 1 0 0 0.5
21 1 0.125 0.125 0.625
25 1 0.497498 0.00268346 0.50921
29 1 0.622056 0.120068 0.625155
24 1 0.368801 0.393964 0.616759
20 1 0.881662 0.379089 0.623842
28 1 0.752741 0.236672 0.501911
19 1 0.25 0 0.75
23 1 0.375 0.125 0.875
27 1 0.75 0 0.75
31 1 0.875 0.125 0.875
18 1 0 0.25 0.75
22 1 0.125 0.375 0.875
26 1 0.494826 0.25321 0.727364
30 1 0.615809 0.375151 0.862848
32 1 0 0.5 0
36 1 0.125 0.625 0.125
40 1 0.489994 0.504387 -0.00525246
44 1 0.617944 0.625573 0.116427
35 1 0.25 0.75 0
39 1 0.375 0.875 0.125
43 1 0.75 0.75 0
47 1 0.875 0.875 0.125
34 1 0.246162 0.491818 0.253584
38 1 0.378258 0.618408 0.388067
42 1 0.754672 0.491416 0.255062
46 1 0.864321 0.642921 0.367075
33 1 0 0.75 0.25
37 1 0.125 0.875 0.375
41 1 0.505168 0.736018 0.25966
45 1 0.623113 0.86494 0.383491
48 1 -0.000478896 0.513646 0.496833
52 1 0.12468 0.627708 0.609851
51 1 0.255235 0.757493 0.503981
55 1 0.383183 0.872987 0.62569
59 1 0.747457 0.757031 0.500698
60 1 0.875 0.875 0.625
50 1 0.232176 0.507269 0.753557
54 1 0.374666 0.629711 0.868809
56 1 0.875 0.625 0.875
58 1 0.756132 0.48733 0.75213
49 1 0 0.75 0.75
53 1 0.125 0.875 0.875
57 1 0.504578 0.761888 0.759996
61 1 0.625 0.875 0.875
ITEM: TIMESTEP
1600
ITEM: NUMBER OF ATOMS
61
ITEM: BOX BOUNDS pp pp pp
0.0000000000000000e+00 1.0859999999999999e+01
0.0000000000000000e+00 1.0859999999999999e+01
0.0000000000000000e+00 1.0859999999999999e+01
ITEM: ATOMS id type xs ys zs
1 1 0 0 0
5 1 0.125 0.125 0.125
9 1 0.5 0 0
13 1 0.625 0.125 0.125
4 1 0.25 0.25 0
8 1 0.379056 0.377446 0.126093
12 1 0.75 0.25 0
16 1 0.875 0.375 0.125
3 1 0.25 0 0.25
7 1 0.377873 0.124012 0.368347
11 1 0.75 0 0.25
15 1 0.875 0.125 0.375
2 1 0 0.25 0.25
6 1 0.123214 0.384705 0.376755
10 1 0.50669 0.247099 0.251724
14 1 0.627756 0.371326 0.378311
17 1 0 0 0.5
21 1 0.125 0.125 0.625
25 1 0.500364 -0.00252057 0.510033
29 1 0.625019 0.116017 0.63179
24 1 0.370412 0.392542 0.615312
20 1 0.884539 0.376997 0.629016
28 1 0.748114 0.24212 0.505078
19 1 0.25 0 0.75
23 1 0.375 0.125 0.875
27 1 0.75 0 0.75
31 1 0.875 0.125 0.875
18 1 0 0.25 0.75
22 1 0.125 0.375 0.875
26 1 0.494701 0.249487 0.726307
30 1 0.610723 0.372992 0.854453
32 1 0 0.5 0
36 1 0.125 0.625 0.125
40 1 0.49147 0.511229 -0.000851436
44 1 0.62407 0.623726 0.116301
35 1 0.25 0.75 0
39 1 0.375 0.875 0.125
43 1 0.75 0.75 0
47 1 0.875 0.875 0.125
34 1 0.244833 0.499917 0.248174
38 1 0.374155 0.618435 0.383415
42 1 0.752641 0.499125 0.248052
46 1 0.865783 0.642238 0.371009
33 1 0 0.75 0.25
37 1 0.125 0.875 0.375
41 1 0.504981 0.740587 0.265262
45 1 0.615142 0.865914 0.382284
48 1 -0.00292389 0.513188 0.494737
52 1 0.127204 0.629243 0.612724
51 1 0.256814 0.752675 0.504454
55 1 0.379806 0.87663 0.621802
59 1 0.753072 0.754644 0.498477
60 1 0.875 0.875 0.625
50 1 0.225584 0.506508 0.749021
54 1 0.373264 0.635777 0.8699
56 1 0.875 0.625 0.875
58 1 0.751284 0.493256 0.756622
49 1 0 0.75 0.75
53 1 0.125 0.875 0.875
57 1 0.504129 0.762026 0.760422
61 1 0.625 0.875 0.875
ITEM: TIMESTEP
1700
ITEM: NUMBER OF ATOMS
61
ITEM: BOX BOUNDS pp pp pp
0.0000000000000000e+00 1.0859999999999999e+01