ITEM: TIMESTEP
0
ITEM: NUMBER OF ATOMS
62
ITEM: BOX BOUNDS pp pp pp
0.0000000000000000e+00 1.0859999999999999e+01
0.0000000000000000e+00 1.0859999999999999e+01
0.0000000000000000e+00 1.0859999999999999e+01
ITEM: ATOMS id type xs ys zs
1 1 0 0 0
5 1 0.125 0.125 0.125
9 1 0.5 0 0
13 1 0.625 0.125 0.125
4 1 0.25 0.25 0
8 1 0.375 0.375 0.125
12 1 0.75 0.25 0
16 1 0.875 0.375 0.125
3 1 0.25 0 0.25
7 1 0.375 0.125 0.375
11 1 0.75 0 0.25
15 1 0.875 0.125 0.375
2 1 0 0.25 0.25
6 1 0.125 0.375 0.375
10 1 0.5 0.25 0.25
14 1 0.625 0.375 0.375
17 1 0 0 0.5
21 1 0.125 0.125 0.625
25 1 0.5 0 0.5
29 1 0.625 0.125 0.625
20 1 0.25 0.25 0.5
24 1 0.875 0.375 0.625
28 1 0.75 0.25 0.5
19 1 0.25 0 0.75
23 1 0.375 0.125 0.875
27 1 0.75 0 0.75
31 1 0.875 0.125 0.875
18 1 0 0.25 0.75
22 1 0.125 0.375 0.875
26 1 0.5 0.25 0.75
30 1 0.625 0.375 0.875
32 1 0 0.5 0
36 1 0.125 0.625 0.125
40 1 0.5 0.5 0
44 1 0.625 0.625 0.125
35 1 0.25 0.75 0
39 1 0.375 0.875 0.125
43 1 0.75 0.75 0
47 1 0.875 0.875 0.125
34 1 0.25 0.5 0.25
38 1 0.375 0.625 0.375
42 1 0.75 0.5 0.25
46 1 0.875 0.625 0.375
33 1 0 0.75 0.25
37 1 0.125 0.875 0.375
41 1 0.5 0.75 0.25
45 1 0.625 0.875 0.375
48 1 0 0.5 0.5
52 1 0.125 0.625 0.625
56 1 0.5 0.5 0.5
51 1 0.25 0.75 0.5
55 1 0.375 0.875 0.625
59 1 0.75 0.75 0.5
60 1 0.875 0.875 0.625
50 1 0.25 0.5 0.75
54 1 0.375 0.625 0.875
58 1 0.75 0.5 0.75
62 1 0.875 0.625 0.875
49 1 0 0.75 0.75
53 1 0.125 0.875 0.875
57 1 0.5 0.75 0.75
61 1 0.625 0.875 0.875
ITEM: TIMESTEP
100
ITEM: NUMBER OF ATOMS
62
ITEM: BOX BOUNDS pp pp pp
0.0000000000000000e+00 1.0859999999999999e+01
0.0000000000000000e+00 1.0859999999999999e+01
0.0000000000000000e+00 1.0859999999999999e+01
ITEM: ATOMS id type xs ys zs
1 1 0 0 0
5 1 0.125 0.125 0.125
9 1 0.5 0 0
13 1 0.625 0.125 0.125
4 1 0.25 0.25 0
8 1 0.375 0.375 0.125
12 1 0.75 0.25 0
16 1 0.875 0.375 0.125
3 1 0.25 0 0.25
7 1 0.375 0.125 0.375
11 1 0.75 0 0.25
15 1 0.875 0.125 0.375
2 1 0 0.25 0.25
6 1 0.125 0.375 0.375
10 1 0.495131 0.250645 0.251513
14 1 0.627462 0.380636 0.376262
17 1 0 0 0.5
21 1 0.125 0.125 0.625
25 1 0.5 0 0.5
29 1 0.625 0.125 0.625
20 1 0.243864 0.252377 0.501592
24 1 0.875 0.375 0.625
28 1 0.751923 0.247332 0.485085
19 1 0.25 0 0.75
23 1 0.375 0.125 0.875
27 1 0.75 0 0.75
31 1 0.875 0.125 0.875
18 1 0 0.25 0.75
22 1 0.125 0.375 0.875
26 1 0.504869 0.247738 0.752097
30 1 0.625 0.375 0.875
32 1 0 0.5 0
36 1 0.125 0.625 0.125
40 1 0.5 0.5 0
44 1 0.625 0.625 0.125
35 1 0.25 0.75 0
39 1 0.375 0.875 0.125
43 1 0.75 0.75 0
47 1 0.875 0.875 0.125
34 1 0.24803 0.489864 0.241477
38 1 0.378793 0.628879 0.374646
42 1 0.754814 0.494115 0.257956
46 1 0.875 0.625 0.375
33 1 0 0.75 0.25
37 1 0.125 0.875 0.375
41 1 0.505389 0.752595 0.250618
45 1 0.625 0.875 0.375
48 1 0 0.5 0.5
52 1 0.125 0.625 0.625
56 1 0.503529 0.499198 0.502299
51 1 0.25181 0.749487 0.507643
55 1 0.375 0.875 0.625
59 1 0.748598 0.754391 0.495159
60 1 0.875 0.875 0.625
50 1 0.250575 0.500358 0.755597
54 1 0.375 0.625 0.875
58 1 0.741268 0.500406 0.751695
62 1 0.875 0.625 0.875
49 1 0 0.75 0.75
53 1 0.125 0.875 0.875
57 1 0.494065 0.752986 0.746938
61 1 0.625 0.875 0.875
ITEM: TIMESTEP
200
ITEM: NUMBER OF ATOMS
62
ITEM: BOX BOUNDS pp pp pp
0.0000000000000000e+00 1.0859999999999999e+01
0.0000000000000000e+00 1.0859999999999999e+01
0.0000000000000000e+00 1.0859999999999999e+01
ITEM: ATOMS id type xs ys zs
1 1 0 0 0
5 1 0.125 0.125 0.125
9 1 0.5 0 0
13 1 0.625 0.125 0.125
4 1 0.25 0.25 0
8 1 0.375 0.375 0.125
12 1 0.75 0.25 0
16 1 0.875 0.375 0.125
3 1 0.25 0 0.25
7 1 0.375 0.125 0.375
11 1 0.75 0 0.25
15 1 0.875 0.125 0.375
2 1 0 0.25 0.25
6 1 0.125 0.375 0.375
10 1 0.493879 0.252066 0.252675
14 1 0.626779 0.382422 0.376718
17 1 0 0 0.5
21 1 0.125 0.125 0.625
25 1 0.5 0 0.5
29 1 0.625 0.125 0.625
20 1 0.240262 0.25288 0.50186
24 1 0.875 0.375 0.625
28 1 0.751819 0.247051 0.478704
19 1 0.25 0 0.75
23 1 0.375 0.125 0.875
27 1 0.75 0 0.75
31 1 0.875 0.125 0.875
18 1 0 0.25 0.75
22 1 0.125 0.375 0.875
26 1 0.508569 0.245334 0.754508
30 1 0.625 0.375 0.875
32 1 0 0.5 0
36 1 0.125 0.625 0.125
40 1 0.5 0.5 0
44 1 0.625 0.625 0.125
35 1 0.25 0.75 0
39 1 0.375 0.875 0.125
43 1 0.75 0.75 0
47 1 0.875 0.875 0.125
34 1 0.246235 0.485952 0.23795
38 1 0.38121 0.62958 0.374635
42 1 0.758345 0.49244 0.260885
46 1 0.875 0.625 0.375
33 1 0 0.75 0.25
37 1 0.125 0.875 0.375
41 1 0.508132 0.754387 0.250104
45 1 0.625 0.875 0.375
48 1 0 0.5 0.5
52 1 0.125 0.625 0.625
56 1 0.506079 0.500048 0.50386
51 1 0.252852 0.749319 0.510475
55 1 0.375 0.875 0.625
59 1 0.749462 0.757492 0.491813
60 1 0.875 0.875 0.625
50 1 0.249682 0.501404 0.759265
54 1 0.375 0.625 0.875
58 1 0.7366 0.501005 0.752203
62 1 0.875 0.625 0.875
49 1 0 0.75 0.75
53 1 0.125 0.875 0.875
57 1 0.490473 0.755155 0.746824
61 1 0.625 0.875 0.875
ITEM: TIMESTEP
300
ITEM: NUMBER OF ATOMS
62
ITEM: BOX BOUNDS pp pp pp
0.0000000000000000e+00 1.0859999999999999e+01
0.0000000000000000e+00 1.0859999999999999e+01
0.0000000000000000e+00 1.0859999999999999e+01
ITEM: ATOMS id type xs ys zs
1 1 0 0 0
5 1 0.125 0.125 0.125
9 1 0.5 0 0
13 1 0.625 0.125 0.125
4 1 0.25 0.25 0
8 1 0.375 0.375 0.125
12 1 0.75 0.25 0
16 1 0.875 0.375 0.125
3 1 0.25 0 0.25
7 1 0.375 0.125 0.375
11 1 0.75 0 0.25
15 1 0.875 0.125 0.375
2 1 0 0.25 0.25
6 1 0.125 0.375 0.375
10 1 0.496999 0.253824 0.253022
14 1 0.622712 0.380021 0.375627
17 1 0 0 0.5
21 1 0.125 0.125 0.625
25 1 0.5 0 0.5
29 1 0.625 0.125 0.625
20 1 0.240919 0.25108 0.500585
24 1 0.875 0.375 0.625
28 1 0.749096 0.249819 0.483764
19 1 0.25 0 0.75
23 1 0.375 0.125 0.875
27 1 0.75 0 0.75
31 1 0.875 0.125 0.875
18 1 0 0.25 0.75
22 1 0.125 0.375 0.875
26 1 0.509908 0.243142 0.756898
30 1 0.625 0.375 0.875
32 1 0 0.5 0
36 1 0.125 0.625 0.125
40 1 0.5 0.5 0
44 1 0.625 0.625 0.125
35 1 0.25 0.75 0
39 1 0.375 0.875 0.125
43 1 0.75 0.75 0
47 1 0.875 0.875 0.125
34 1 0.244743 0.490301 0.241187
38 1 0.381544 0.626758 0.374761
42 1 0.759131 0.495427 0.257568
46 1 0.875 0.625 0.375
33 1 0 0.75 0.25
37 1 0.125 0.875 0.375
41 1 0.506815 0.754467 0.248345
45 1 0.625 0.875 0.375
48 1 0 0.5 0.5
52 1 0.125 0.625 0.625
56 1 0.507214 0.503093 0.504896
51 1 0.252849 0.749325 0.506666
55 1 0.375 0.875 0.625
59 1 0.753168 0.758133 0.491208
60 1 0.875 0.875 0.625
50 1 0.247149 0.503081 0.759478
54 1 0.375 0.625 0.875
58 1 0.737623 0.502208 0.750774
62 1 0.875 0.625 0.875
49 1 0 0.75 0.75
53 1 0.125 0.875 0.875
57 1 0.490856 0.755609 0.750567
61 1 0.625 0.875 0.875
ITEM: TIMESTEP
400
ITEM: NUMBER OF ATOMS
62
ITEM: BOX BOUNDS pp pp pp
0.0000000000000000e+00 1.0859999999999999e+01
0.0000000000000000e+00 1.0859999999999999e+01
0.0000000000000000e+00 1.0859999999999999e+01
ITEM: ATOMS id type xs ys zs
1 1 0 0 0
5 1 0.125 0.125 0.125
9 1 0.5 0 0
13 1 0.625 0.125 0.125
4 1 0.25 0.25 0
8 1 0.375 0.375 0.125
12 1 0.75 0.25 0
16 1 0.875 0.375 0.125
3 1 0.25 0 0.25
7 1 0.375 0.125 0.375
11 1 0.75 0 0.25
15 1 0.875 0.125 0.375
2 1 0 0.25 0.25
6 1 0.125 0.375 0.375
10 1 0.50174 0.254292 0.251891
14 1 0.61845 0.3767 0.373453
17 1 0 0 0.5
21 1 0.125 0.125 0.625
25 1 0.5 0 0.5
29 1 0.625 0.125 0.625
20 1 0.245422 0.247528 0.497951
24 1 0.875 0.375 0.625
28 1 0.745775 0.253677 0.497489
19 1 0.25 0 0.75
23 1 0.375 0.125 0.875
27 1 0.75 0 0.75
31 1 0.875 0.125 0.875
18 1 0 0.25 0.75
22 1 0.125 0.375 0.875
26 1 0.508771 0.241537 0.758735
30 1 0.625 0.375 0.875
32 1 0 0.5 0
36 1 0.125 0.625 0.125
40 1 0.5 0.5 0
44 1 0.625 0.625 0.125
35 1 0.25 0.75 0
39 1 0.375 0.875 0.125
43 1 0.75 0.75 0
47 1 0.875 0.875 0.125
34 1 0.24564 0.500156 0.249318
38 1 0.379914 0.622106 0.374639
42 1 0.755133 0.500776 0.250133
46 1 0.875 0.625 0.375
33 1 0 0.75 0.25
37 1 0.125 0.875 0.375
41 1 0.502158 0.752479 0.246651
45 1 0.625 0.875 0.375
48 1 0 0.5 0.5
52 1 0.125 0.625 0.625
56 1 0.507162 0.507347 0.505126
51 1 0.252021 0.749202 0.498239
55 1 0.375 0.875 0.625
59 1 0.758156 0.756635 0.492972
60 1 0.875 0.875 0.625
50 1 0.243843 0.505177 0.75643
54 1 0.375 0.625 0.875
58 1 0.743767 0.503358 0.74812
62 1 0.875 0.625 0.875
49 1 0 0.75 0.75
53 1 0.125 0.875 0.875
57 1 0.49449 0.754787 0.756492
61 1 0.625 0.875 0.875
ITEM: TIMESTEP
500
ITEM: NUMBER OF ATOMS
62
ITEM: BOX BOUNDS pp pp pp
0.0000000000000000e+00 1.0859999999999999e+01
0.0000000000000000e+00 1.0859999999999999e+01
0.0000000000000000e+00 1.0859999999999999e+01
ITEM: ATOMS id type xs ys zs
1 1 0 0 0
5 1 0.125 0.125 0.125
9 1 0.5 0 0
13 1 0.625 0.125 0.125
4 1 0.25 0.25 0
8 1 0.375 0.375 0.125
12 1 0.75 0.25 0
16 1 0.875 0.375 0.125
3 1 0.25 0 0.25
7 1 0.375 0.125 0.375
11 1 0.75 0 0.25
15 1 0.875 0.125 0.375
2 1 0 0.25 0.25
6 1 0.125 0.375 0.375
10 1 0.503887 0.251781 0.248818
14 1 0.618048 0.376168 0.372891
17 1 0 0 0.5
21 1 0.125 0.125 0.625
25 1 0.5 0 0.5
29 1 0.625 0.125 0.625
20 1 0.251152 0.243817 0.494928
24 1 0.875 0.375 0.625
28 1 0.743578 0.25635 0.512251
19 1 0.25 0 0.75
23 1 0.375 0.125 0.875
27 1 0.75 0 0.75
31 1 0.875 0.125 0.875
18 1 0 0.25 0.75
22 1 0.125 0.375 0.875
26 1 0.506134 0.241024 0.759285
30 1 0.625 0.375 0.875
32 1 0 0.5 0
36 1 0.125 0.625 0.125
40 1 0.5 0.5 0
44 1 0.625 0.625 0.125
35 1 0.25 0.75 0
39 1 0.375 0.875 0.125
43 1 0.75 0.75 0
47 1 0.875 0.875 0.125
34 1 0.249427 0.50956 0.258152
38 1 0.377361 0.618991 0.374208
42 1 0.747418 0.50555 0.242667
46 1 0.875 0.625 0.375
33 1 0 0.75 0.25
37 1 0.125 0.875 0.375
41 1 0.496648 0.748846 0.246758
45 1 0.625 0.875 0.375
48 1 0 0.5 0.5
52 1 0.125 0.625 0.625
56 1 0.506545 0.510938 0.504149
51 1 0.251041 0.748641 0.49009
55 1 0.375 0.875 0.625
59 1 0.761469 0.754312 0.495687
60 1 0.875 0.875 0.625
50 1 0.241512 0.506971 0.752077
54 1 0.375 0.625 0.875
58 1 0.752589 0.503334 0.745865
62 1 0.875 0.625 0.875
49 1 0 0.75 0.75
53 1 0.125 0.875 0.875
57 1 0.498893 0.753586 0.761108
61 1 0.625 0.875 0.875
ITEM: TIMESTEP
600
ITEM: NUMBER OF ATOMS
62
ITEM: BOX BOUNDS pp pp pp
0.0000000000000000e+00 1.0859999999999999e+01
0.0000000000000000e+00 1.0859999999999999e+01
0.0000000000000000e+00 1.0859999999999999e+01
ITEM: ATOMS id type xs ys zs
1 1 0 0 0
5 1 0.125 0.125 0.125
9 1 0.5 0 0
13 1 0.625 0.125 0.125
4 1 0.25 0.25 0
8 1 0.375 0.375 0.125
12 1 0.75 0.25 0
16 1 0.875 0.375 0.125
3 1 0.25 0 0.25
7 1 0.375 0.125 0.375
11 1 0.75 0 0.25
15 1 0.875 0.125 0.375
2 1 0 0.25 0.25
6 1 0.125 0.375 0.375
10 1 0.502062 0.247502 0.245636
14 1 0.621846 0.378669 0.37467
17 1 0 0 0.5
21 1 0.125 0.125 0.625
25 1 0.5 0 0.5
29 1 0.625 0.125 0.625
20 1 0.25456 0.242166 0.493323
24 1 0.875 0.375 0.625
28 1 0.742797 0.257268 0.519807
19 1 0.25 0 0.75
23 1 0.375 0.125 0.875
27 1 0.75 0 0.75
31 1 0.875 0.125 0.875
18 1 0 0.25 0.75
22 1 0.125 0.375 0.875
26 1 0.503406 0.242123 0.75792
30 1 0.625 0.375 0.875
32 1 0 0.5 0
36 1 0.125 0.625 0.125
40 1 0.5 0.5 0
44 1 0.625 0.625 0.125
35 1 0.25 0.75 0
39 1 0.375 0.875 0.125
43 1 0.75 0.75 0
47 1 0.875 0.875 0.125
34 1 0.251943 0.511936 0.261937
38 1 0.376842 0.621212 0.375411
42 1 0.741082 0.506508 0.240094
46 1 0.875 0.625 0.375
33 1 0 0.75 0.25
37 1 0.125 0.875 0.375
41 1 0.493095 0.74499 0.24899
45 1 0.625 0.875 0.375
48 1 0 0.5 0.5
52 1 0.125 0.625 0.625
56 1 0.506041 0.512553 0.50216
51 1 0.250471 0.747692 0.486965
55 1 0.375 0.875 0.625
59 1 0.760849 0.752301 0.498071
60 1 0.875 0.875 0.625
50 1 0.241887 0.507244 0.749025
54 1 0.375 0.625 0.875
58 1 0.760483 0.50173 0.74563
62 1 0.875 0.625 0.875
49 1 0 0.75 0.75
53 1 0.125 0.875 0.875
57 1 0.501588 0.752263 0.761464
61 1 0.625 0.875 0.875
ITEM: TIMESTEP
700
ITEM: NUMBER OF ATOMS
62
ITEM: BOX BOUNDS pp pp pp
0.0000000000000000e+00 1.0859999999999999e+01
0.0000000000000000e+00 1.0859999999999999e+01
0.0000000000000000e+00 1.0859999999999999e+01
ITEM: ATOMS id type xs ys zs
1 1 0 0 0
5 1 0.125 0.125 0.125
9 1 0.5 0 0
13 1 0.625 0.125 0.125
4 1 0.25 0.25 0
8 1 0.375 0.375 0.125
12 1 0.75 0.25 0
16 1 0.875 0.375 0.125
3 1 0.25 0 0.25
7 1 0.375 0.125 0.375
11 1 0.75 0 0.25
15 1 0.875 0.125 0.375
2 1 0 0.25 0.25
6 1 0.125 0.375 0.375
10 1 0.498207 0.244883 0.24529
14 1 0.626437 0.381349 0.377389
17 1 0 0 0.5
21 1 0.125 0.125 0.625
25 1 0.5 0 0.5
29 1 0.625 0.125 0.625
20 1 0.253534 0.243942 0.494432
24 1 0.875 0.375 0.625
28 1 0.743776 0.256741 0.516228
19 1 0.25 0 0.75
23 1 0.375 0.125 0.875
27 1 0.75 0 0.75
31 1 0.875 0.125 0.875
18 1 0 0.25 0.75
22 1 0.125 0.375 0.875
26 1 0.501497 0.244959 0.754651
30 1 0.625 0.375 0.875
32 1 0 0.5 0
36 1 0.125 0.625 0.125
40 1 0.5 0.5 0
44 1 0.625 0.625 0.125
35 1 0.25 0.75 0
39 1 0.375 0.875 0.125
43 1 0.75 0.75 0
47 1 0.875 0.875 0.125
34 1 0.251123 0.505849 0.258449
38 1 0.378751 0.627777 0.37878
42 1 0.740917 0.502328 0.244406
46 1 0.875 0.625 0.375
33 1 0 0.75 0.25
37 1 0.125 0.875 0.375
41 1 0.493651 0.743509 0.251571
45 1 0.625 0.875 0.375
48 1 0 0.5 0.5
52 1 0.125 0.625 0.625
56 1 0.506096 0.511984 0.499843
51 1 0.250032 0.747355 0.491231
55 1 0.375 0.875 0.625
59 1 0.756119 0.751083 0.499507
60 1 0.875 0.875 0.625
50 1 0.245367 0.505275 0.748726
54 1 0.375 0.625 0.875
58 1 0.76408 0.498987 0.748435
62 1 0.875 0.625 0.875
49 1 0 0.75 0.75
53 1 0.125 0.875 0.875
57 1 0.501539 0.75089 0.756937
61 1 0.625 0.875 0.875
ITEM: TIMESTEP
800
ITEM: NUMBER OF ATOMS
62
ITEM: BOX BOUNDS pp pp pp
0.0000000000000000e+00 1.0859999999999999e+01
0.0000000000000000e+00 1.0859999999999999e+01
0.0000000000000000e+00 1.0859999999999999e+01
ITEM: ATOMS id type xs ys zs
1 1 0 0 0
5 1 0.125 0.125 0.125
9 1 0.5 0 0
13 1 0.625 0.125 0.125
4 1 0.25 0.25 0
8 1 0.375 0.375 0.125
12 1 0.75 0.25 0
16 1 0.875 0.375 0.125
3 1 0.25 0 0.25
7 1 0.375 0.125 0.375
11 1 0.75 0 0.25
15 1 0.875 0.125 0.375
2 1 0 0.25 0.25
6 1 0.125 0.375 0.375
10 1 0.495301 0.245917 0.24839
14 1 0.628209 0.381374 0.380114
17 1 0 0 0.5
21 1 0.125 0.125 0.625
25 1 0.5 0 0.5
29 1 0.625 0.125 0.625
20 1 0.248844 0.248279 0.497703
24 1 0.875 0.375 0.625
28 1 0.74708 0.254498 0.50334
19 1 0.25 0 0.75
23 1 0.375 0.125 0.875
27 1 0.75 0 0.75
31 1 0.875 0.125 0.875
18 1 0 0.25 0.75
22 1 0.125 0.375 0.875
26 1 0.500458 0.24892 0.750349
30 1 0.625 0.375 0.875
32 1 0 0.5 0
36 1 0.125 0.625 0.125
40 1 0.5 0.5 0
44 1 0.625 0.625 0.125
35 1 0.25 0.75 0
39 1 0.375 0.875 0.125
43 1 0.75 0.75 0
47 1 0.875 0.875 0.125
34 1 0.250014 0.496611 0.25101
38 1 0.379316 0.632489 0.381584
42 1 0.747427 0.496323 0.252278
46 1 0.875 0.625 0.375
33 1 0 0.75 0.25
37 1 0.125 0.875 0.375
41 1 0.498792 0.746718 0.252384
45 1 0.625 0.875 0.375
48 1 0 0.5 0.5
52 1 0.125 0.625 0.625
56 1 0.506812 0.509976 0.498163
51 1 0.249159 0.749135 0.501715
55 1 0.375 0.875 0.625
59 1 0.749171 0.75059 0.499998
60 1 0.875 0.875 0.625
50 1 0.250465 0.501608 0.750659
54 1 0.375 0.625 0.875
58 1 0.761919 0.495515 0.7541
62 1 0.875 0.625 0.875
49 1 0 0.75 0.75
53 1 0.125 0.875 0.875
57 1 0.499431 0.749888 0.749479
61 1 0.625 0.875 0.875
ITEM: TIMESTEP
900
ITEM: NUMBER OF ATOMS
62
ITEM: BOX BOUNDS pp pp pp
0.0000000000000000e+00 1.0859999999999999e+01
0.0000000000000000e+00 1.0859999999999999e+01
0.0000000000000000e+00 1.0859999999999999e+01
ITEM: ATOMS id type xs ys zs
1 1 0 0 0
5 1 0.125 0.125 0.125
9 1 0.5 0 0
13 1 0.625 0.125 0.125
4 1 0.25 0.25 0
8 1 0.375 0.375 0.125
12 1 0.75 0.25 0
16 1 0.875 0.375 0.125
3 1 0.25 0 0.25
7 1 0.375 0.125 0.375
11 1 0.75 0 0.25
15 1 0.875 0.125 0.375
2 1 0 0.25 0.25
6 1 0.125 0.375 0.375
10 1 0.495715 0.250337 0.253234
14 1 0.626024 0.377808 0.381031
17 1 0 0 0.5
21 1 0.125 0.125 0.625
25 1 0.5 0 0.5
29 1 0.625 0.125 0.625
20 1 0.243494 0.252729 0.501384
24 1 0.875 0.375 0.625
28 1 0.75224 0.250131 0.488821
19 1 0.25 0 0.75
23 1 0.375 0.125 0.875
27 1 0.75 0 0.75
31 1 0.875 0.125 0.875
18 1 0 0.25 0.75
22 1 0.125 0.375 0.875
26 1 0.499898 0.252882 0.746365
30 1 0.625 0.375 0.875
32 1 0 0.5 0
36 1 0.125 0.625 0.125
40 1 0.5 0.5 0
44 1 0.625 0.625 0.125
35 1 0.25 0.75 0
39 1 0.375 0.875 0.125
43 1 0.75 0.75 0
47 1 0.875 0.875 0.125
34 1 0.249962 0.490399 0.244098
38 1 0.377143 0.632702 0.382036
42 1 0.7568 0.492962 0.258726
46 1 0.875 0.625 0.375
33 1 0 0.75 0.25
37 1 0.125 0.875 0.375
41 1 0.505528 0.753443 0.251347
45 1 0.625 0.875 0.375
48 1 0 0.5 0.5
52 1 0.125 0.625 0.625
56 1 0.507621 0.507686 0.497954
51 1 0.248085 0.753008 0.512713
55 1 0.375 0.875 0.625
59 1 0.742971 0.750329 0.500026
60 1 0.875 0.875 0.625
50 1 0.254787 0.497586 0.753064
54 1 0.375 0.625 0.875
58 1 0.755579 0.491744 0.760568
62 1 0.875 0.625 0.875
49 1 0 0.75 0.75
53 1 0.125 0.875 0.875
57 1 0.497029 0.749411 0.742562
61 1 0.625 0.875 0.875
ITEM: TIMESTEP
1000
ITEM: NUMBER OF ATOMS
62
ITEM: BOX BOUNDS pp pp pp
0.0000000000000000e+00 1.0859999999999999e+01
0.0000000000000000e+00 1.0859999999999999e+01
0.0000000000000000e+00 1.0859999999999999e+01
ITEM: ATOMS id type xs ys zs
1 1 0 0 0
5 1 0.125 0.125 0.125
9 1 0.5 0 0
13 1 0.625 0.125 0.125
4 1 0.25 0.25 0
8 1 0.375 0.375 0.125
12 1 0.75 0.25 0
16 1 0.875 0.375 0.125
3 1 0.25 0 0.25
7 1 0.375 0.125 0.375
11 1 0.75 0 0.25
15 1 0.875 0.125 0.375
2 1 0 0.25 0.25
6 1 0.125 0.375 0.375
10 1 0.49925 0.255775 0.257162
14 1 0.621927 0.372678 0.378224
17 1 0 0 0.5
21 1 0.125 0.125 0.625
25 1 0.5 0 0.5
29 1 0.625 0.125 0.625
20 1 0.240655 0.255204 0.504027
24 1 0.875 0.375 0.625
28 1 0.756387 0.24583 0.481689
19 1 0.25 0 0.75
23 1 0.375 0.125 0.875
27 1 0.75 0 0.75
31 1 0.875 0.125 0.875
18 1 0 0.25 0.75
22 1 0.125 0.375 0.875
26 1 0.499498 0.255737 0.743869
30 1 0.625 0.375 0.875
32 1 0 0.5 0
36 1 0.125 0.625 0.125
40 1 0.5 0.5 0
44 1 0.625 0.625 0.125
35 1 0.25 0.75 0
39 1 0.375 0.875 0.125
43 1 0.75 0.75 0
47 1 0.875 0.875 0.125
34 1 0.249549 0.490745 0.24147
38 1 0.373531 0.630306 0.379845
42 1 0.763259 0.492636 0.261294
46 1 0.875 0.625 0.375
33 1 0 0.75 0.25
37 1 0.125 0.875 0.375
41 1 0.509091 0.759123 0.249249
45 1 0.625 0.875 0.375
48 1 0 0.5 0.5
52 1 0.125 0.625 0.625
56 1 0.5077 0.50596 0.499287
51 1 0.24679 0.756759 0.51736
55 1 0.375 0.875 0.625
59 1 0.74003 0.749701 0.50021
60 1 0.875 0.875 0.625
50 1 0.256624 0.494505 0.754292
54 1 0.375 0.625 0.875
58 1 0.749479 0.489378 0.764276
62 1 0.875 0.625 0.875
49 1 0 0.75 0.75
53 1 0.125 0.875 0.875
57 1 0.496125 0.748951 0.739302
61 1 0.625 0.875 0.875
ITEM: TIMESTEP
1100
ITEM: NUMBER OF ATOMS
62
ITEM: BOX BOUNDS pp pp pp
0.0000000000000000e+00 1.0859999999999999e+01
0.0000000000000000e+00 1.0859999999999999e+01
0.0000000000000000e+00 1.0859999999999999e+01
ITEM: ATOMS id type xs ys zs
1 1 0 0 0
5 1 0.125 0.125 0.125
9 1 0.5 0 0
13 1 0.625 0.125 0.125
4 1 0.25 0.25 0
8 1 0.375 0.375 0.125
12 1 0.75 0.25 0
16 1 0.875 0.375 0.125
3 1 0.25 0 0.25
7 1 0.375 0.125 0.375
11 1 0.75 0 0.25
15 1 0.875 0.125 0.375
2 1 0 0.25 0.25
6 1 0.125 0.375 0.375
10 1 0.501986 0.257701 0.256568
14 1 0.620062 0.370243 0.374516
17 1 0 0 0.5
21 1 0.125 0.125 0.625
25 1 0.5 0 0.5
29 1 0.625 0.125 0.625
20 1 0.241986 0.254915 0.504816
24 1 0.875 0.375 0.625
28 1 0.755924 0.245451 0.485887
19 1 0.25 0 0.75
23 1 0.375 0.125 0.875
27 1 0.75 0 0.75
31 1 0.875 0.125 0.875
18 1 0 0.25 0.75
22 1 0.125 0.375 0.875
26 1 0.499151 0.256682 0.743498
30 1 0.625 0.375 0.875
32 1 0 0.5 0
36 1 0.125 0.625 0.125
40 1 0.5 0.5 0
44 1 0.625 0.625 0.125
35 1 0.25 0.75 0
39 1 0.375 0.875 0.125
43 1 0.75 0.75 0
47 1 0.875 0.875 0.125
34 1 0.248254 0.497297 0.244449
38 1 0.370111 0.627413 0.375886
42 1 0.762711 0.493354 0.259395
46 1 0.875 0.625 0.375
33 1 0 0.75 0.25
37 1 0.125 0.875 0.375
41 1 0.507095 0.759898 0.246569
45 1 0.625 0.875 0.375
48 1 0 0.5 0.5
52 1 0.125 0.625 0.625
56 1 0.50661 0.50485 0.500872
51 1 0.244923 0.758026 0.512707
55 1 0.375 0.875 0.625
59 1 0.741391 0.74854 0.500776
60 1 0.875 0.875 0.625
50 1 0.255566 0.493387 0.753582
54 1 0.375 0.625 0.875
58 1 0.747804 0.490674 0.762348
62 1 0.875 0.625 0.875
49 1 0 0.75 0.75
53 1 0.125 0.875 0.875
57 1 0.49748 0.748178 0.741075
61 1 0.625 0.875 0.875
ITEM: TIMESTEP
1200
ITEM: NUMBER OF ATOMS
62
ITEM: BOX BOUNDS pp pp pp
0.0000000000000000e+00 1.0859999999999999e+01
0.0000000000000000e+00 1.0859999999999999e+01
0.0000000000000000e+00 1.0859999999999999e+01
ITEM: ATOMS id type xs ys zs
1 1 0 0 0
5 1 0.125 0.125 0.125
9 1 0.5 0 0
13 1 0.625 0.125 0.125
4 1 0.25 0.25 0
8 1 0.375 0.375 0.125
12 1 0.75 0.25 0
16 1 0.875 0.375 0.125
3 1 0.25 0 0.25
7 1 0.375 0.125 0.375
11 1 0.75 0 0.25
15 1 0.875 0.125 0.375
2 1 0 0.25 0.25
6 1 0.125 0.375 0.375
10 1 0.500876 0.253391 0.250141
14 1 0.623106 0.372989 0.373812
17 1 0 0 0.5
21 1 0.125 0.125 0.625
25 1 0.5 0 0.5
29 1 0.625 0.125 0.625
20 1 0.247082 0.252137 0.503297
24 1 0.875 0.375 0.625
28 1 0.7508 0.248952 0.498881
19 1 0.25 0 0.75
23 1 0.375 0.125 0.875
27 1 0.75 0 0.75
31 1 0.875 0.125 0.875
18 1 0 0.25 0.75
22 1 0.125 0.375 0.875
26 1 0.4989 0.255308 0.745384
30 1 0.625 0.375 0.875
32 1 0 0.5 0
36 1 0.125 0.625 0.125
40 1 0.5 0.5 0
44 1 0.625 0.625 0.125
35 1 0.25 0.75 0
39 1 0.375 0.875 0.125
43 1 0.75 0.75 0
47 1 0.875 0.875 0.125
34 1 0.247198 0.505638 0.250875
38 1 0.368624 0.625797 0.372142
42 1 0.754847 0.495 0.25358
46 1 0.875 0.625 0.375
33 1 0 0.75 0.25
37 1 0.125 0.875 0.375
41 1 0.500785 0.75505 0.244941
45 1 0.625 0.875 0.375
48 1 0 0.5 0.5
52 1 0.125 0.625 0.625
56 1 0.504122 0.504071 0.50099
51 1 0.243829 0.755764 0.501118
55 1 0.375 0.875 0.625
59 1 0.746456 0.747412 0.501317
60 1 0.875 0.875 0.625
50 1 0.252217 0.494957 0.751123
54 1 0.375 0.625 0.875
58 1 0.750887 0.495587 0.755207
62 1 0.875 0.625 0.875
49 1 0 0.75 0.75
53 1 0.125 0.875 0.875
57 1 0.500347 0.747636 0.747081
61 1 0.625 0.875 0.875
ITEM: TIMESTEP
1300
ITEM: NUMBER OF ATOMS
62
ITEM: BOX BOUNDS pp pp pp
0.0000000000000000e+00 1.0859999999999999e+01
0.0000000000000000e+00 1.0859999999999999e+01
0.0000000000000000e+00 1.0859999999999999e+01
ITEM: ATOMS id type xs ys zs
1 1 0 0 0
5 1 0.125 0.125 0.125
9 1 0.5 0 0
13 1 0.625 0.125 0.125
4 1 0.25 0.25 0
8 1 0.375 0.375 0.125
12 1 0.75 0.25 0
16 1 0.875 0.375 0.125
3 1 0.25 0 0.25
7 1 0.375 0.125 0.375
11 1 0.75 0 0.25
15 1 0.875 0.125 0.375
2 1 0 0.25 0.25
6 1 0.125 0.375 0.375
10 1 0.498166 0.246189 0.242747
14 1 0.627762 0.377725 0.375587
17 1 0 0 0.5
21 1 0.125 0.125 0.625
25 1 0.5 0 0.5
29 1 0.625 0.125 0.625
20 1 0.253574 0.248041 0.499799
24 1 0.875 0.375 0.625
28 1 0.74469 0.253285 0.512798
19 1 0.25 0 0.75
23 1 0.375 0.125 0.875
27 1 0.75 0 0.75
31 1 0.875 0.125 0.875
18 1 0 0.25 0.75
22 1 0.125 0.375 0.875
26 1 0.49893 0.25175 0.749121
30 1 0.625 0.375 0.875
32 1 0 0.5 0
36 1 0.125 0.625 0.125
40 1 0.5 0.5 0
44 1 0.625 0.625 0.125
35 1 0.25 0.75 0
39 1 0.375 0.875 0.125
43 1 0.75 0.75 0
47 1 0.875 0.875 0.125
34 1 0.246511 0.509895 0.256231
38 1 0.370811 0.626777 0.371069
42 1 0.74391 0.49888 0.245994
46 1 0.875 0.625 0.375
33 1 0 0.75 0.25
37 1 0.125 0.875 0.375
41 1 0.493675 0.746962 0.246133
45 1 0.625 0.875 0.375
48 1 0 0.5 0.5
52 1 0.125 0.625 0.625
56 1 0.500288 0.503597 0.498838
51 1 0.24572 0.750337 0.489121
55 1 0.375 0.875 0.625
59 1 0.753213 0.747327 0.50121
60 1 0.875 0.875 0.625
50 1 0.247887 0.499106 0.748047
54 1 0.375 0.625 0.875
58 1 0.75549 0.50172 0.746467
62 1 0.875 0.625 0.875
49 1 0 0.75 0.75
53 1 0.125 0.875 0.875
57 1 0.50298 0.748149 0.754668
61 1 0.625 0.875 0.875
ITEM: TIMESTEP
1400
ITEM: NUMBER OF ATOMS
62
ITEM: BOX BOUNDS pp pp pp
0.0000000000000000e+00 1.0859999999999999e+01
0.0000000000000000e+00 1.0859999999999999e+01
0.0000000000000000e+00 1.0859999999999999e+01
ITEM: ATOMS id type xs ys zs
1 1 0 0 0
5 1 0.125 0.125 0.125
9 1 0.5 0 0
13 1 0.625 0.125 0.125
4 1 0.25 0.25 0
8 1 0.375 0.375 0.125
12 1 0.75 0.25 0
16 1 0.875 0.375 0.125
3 1 0.25 0 0.25
7 1 0.375 0.125 0.375
11 1 0.75 0 0.25
15 1 0.875 0.125 0.375
2 1 0 0.25 0.25
6 1 0.125 0.375 0.375
10 1 0.496305 0.241181 0.239828
14 1 0.628914 0.380435 0.377926
17 1 0 0 0.5
21 1 0.125 0.125 0.625
25 1 0.5 0 0.5
29 1 0.625 0.125 0.625
20 1 0.257994 0.244729 0.495998
24 1 0.875 0.375 0.625
28 1 0.741333 0.257146 0.519661
19 1 0.25 0 0.75
23 1 0.375 0.125 0.875
27 1 0.75 0 0.75
31 1 0.875 0.125 0.875
18 1 0 0.25 0.75
22 1 0.125 0.375 0.875
26 1 0.49967 0.246925 0.753654
30 1 0.625 0.375 0.875
32 1 0 0.5 0
36 1 0.125 0.625 0.125
40 1 0.5 0.5 0
44 1 0.625 0.625 0.125
35 1 0.25 0.75 0
39 1 0.375 0.875 0.125
43 1 0.75 0.75 0
47 1 0.875 0.875 0.125
34 1 0.246023 0.507714 0.257478
38 1 0.376007 0.627794 0.372941
42 1 0.737257 0.503482 0.240436
46 1 0.875 0.625 0.375
33 1 0 0.75 0.25
37 1 0.125 0.875 0.375
41 1 0.490091 0.740587 0.24883
45 1 0.625 0.875 0.375
48 1 0 0.5 0.5
52 1 0.125 0.625 0.625
56 1 0.495841 0.503346 0.495096
51 1 0.249881 0.744415 0.483503
55 1 0.375 0.875 0.625
59 1 0.758878 0.749069 0.500087
60 1 0.875 0.875 0.625
50 1 0.244356 0.504319 0.74629
54 1 0.375 0.625 0.875
58 1 0.758104 0.507007 0.739851
62 1 0.875 0.625 0.875
49 1 0 0.75 0.75
53 1 0.125 0.875 0.875
57 1 0.503603 0.749845 0.760382
61 1 0.625 0.875 0.875
ITEM: TIMESTEP
1500
ITEM: NUMBER OF ATOMS
62
ITEM: BOX BOUNDS pp pp pp
0.0000000000000000e+00 1.0859999999999999e+01
0.0000000000000000e+00 1.0859999999999999e+01
0.0000000000000000e+00 1.0859999999999999e+01
ITEM: ATOMS id type xs ys zs
1 1 0 0 0
5 1 0.125 0.125 0.125
9 1 0.5 0 0
13 1 0.625 0.125 0.125
4 1 0.25 0.25 0
8 1 0.375 0.375 0.125
12 1 0.75 0.25 0
16 1 0.875 0.375 0.125
3 1 0.25 0 0.25
7 1 0.375 0.125 0.375
11 1 0.75 0 0.25
15 1 0.875 0.125 0.375
2 1 0 0.25 0.25
6 1 0.125 0.375 0.375
10 1 0.495789 0.241178 0.242919
14 1 0.625244 0.380352 0.379264
17 1 0 0 0.5
21 1 0.125 0.125 0.625
25 1 0.5 0 0.5
29 1 0.625 0.125 0.625
20 1 0.257521 0.244285 0.494135
24 1 0.875 0.375 0.625
28 1 0.741776 0.259831 0.516154
19 1 0.25 0 0.75
23 1 0.375 0.125 0.875
27 1 0.75 0 0.75
31 1 0.875 0.125 0.875
18 1 0 0.25 0.75
22 1 0.125 0.375 0.875
26 1 0.501762 0.242398 0.757544
30 1 0.625 0.375 0.875
32 1 0 0.5 0
36 1 0.125 0.625 0.125
40 1 0.5 0.5 0
44 1 0.625 0.625 0.125
35 1 0.25 0.75 0
39 1 0.375 0.875 0.125
43 1 0.75 0.75 0
47 1 0.875 0.875 0.125
34 1 0.247132 0.501383 0.254762
38 1 0.380155 0.62419 0.375045
42 1 0.739522 0.50479 0.240794
46 1 0.875 0.625 0.375
33 1 0 0.75 0.25
37 1 0.125 0.875 0.375
41 1 0.493291 0.740601 0.249839
45 1 0.625 0.875 0.375
48 1 0 0.5 0.5
52 1 0.125 0.625 0.625
56 1 0.492417 0.502292 0.491985
51 1 0.253002 0.741901 0.487389
55 1 0.375 0.875 0.625
59 1 0.761142 0.752638 0.497826
60 1 0.875 0.875 0.625
50 1 0.243182 0.508215 0.747732
54 1 0.375 0.625 0.875
58 1 0.757142 0.510516 0.737139
62 1 0.875 0.625 0.875
49 1 0 0.75 0.75
53 1 0.125 0.875 0.875
57 1 0.501196 0.752219 0.76164
61 1 0.625 0.875 0.875
ITEM: TIMESTEP
1600
ITEM: NUMBER OF ATOMS
62
ITEM: BOX BOUNDS pp pp pp
0.0000000000000000e+00 1.0859999999999999e+01
0.0000000000000000e+00 1.0859999999999999e+01
0.0000000000000000e+00 1.0859999999999999e+01
ITEM: ATOMS id type xs ys zs
1 1 0 0 0
5 1 0.125 0.125 0.125
9 1 0.5 0 0
13 1 0.625 0.125 0.125
4 1 0.25 0.25 0
8 1 0.375 0.375 0.125
12 1 0.75 0.25 0
16 1 0.875 0.375 0.125
3 1 0.25 0 0.25
7 1 0.375 0.125 0.375
11 1 0.75 0 0.25
15 1 0.875 0.125 0.375
2 1 0 0.25 0.25
6 1 0.125 0.375 0.375
10 1 0.497211 0.246334 0.250239
14 1 0.618659 0.378203 0.37777
17 1 0 0 0.5
21 1 0.125 0.125 0.625
25 1 0.5 0 0.5
29 1 0.625 0.125 0.625
20 1 0.251826 0.246871 0.495092
24 1 0.875 0.375 0.625
28 1 0.745034 0.259392 0.504136
19 1 0.25 0 0.75
23 1 0.375 0.125 0.875
27 1 0.75 0 0.75
31 1 0.875 0.125 0.875
18 1 0 0.25 0.75
22 1 0.125 0.375 0.875
26 1 0.505497 0.239636 0.759648
30 1 0.625 0.375 0.875
32 1 0 0.5 0
36 1 0.125 0.625 0.125
40 1 0.5 0.5 0
44 1 0.625 0.625 0.125
35 1 0.25 0.75 0
39 1 0.375 0.875 0.125
43 1 0.75 0.75 0
47 1 0.875 0.875 0.125
34 1 0.250302 0.494513 0.249513
38 1 0.379396 0.61828 0.373808
42 1 0.748976 0.501899 0.247604
46 1 0.875 0.625 0.375
33 1 0 0.75 0.25
37 1 0.125 0.875 0.375
41 1 0.5018 0.746706 0.249335
45 1 0.625 0.875 0.375
48 1 0 0.5 0.5
52 1 0.125 0.625 0.625
56 1 0.491849 0.498693 0.492585
51 1 0.254051 0.743817 0.49848
55 1 0.375 0.875 0.625
59 1 0.759369 0.757095 0.494556
60 1 0.875 0.875 0.625
50 1 0.244511 0.509138 0.752637
54 1 0.375 0.625 0.875
58 1 0.752931 0.511457 0.738524
62 1 0.875 0.625 0.875
49 1 0 0.75 0.75
53 1 0.125 0.875 0.875
57 1 0.496185 0.754851 0.758127
61 1 0.625 0.875 0.875
ITEM: TIMESTEP
1700
ITEM: NUMBER OF ATOMS
62
ITEM: BOX BOUNDS pp pp pp
0.0000000000000000e+00 1.0859999999999999e+01
0.0000000000000000e+00 1.0859999999999999e+01
0.0000000000000000e+00 1.0859999999999999e+01
ITEM: ATOMS id type xs ys zs
1 1 0 0 0
5 1 0.125 0.125 0.125
9 1 0.5 0 0
13 1 0.625 0.125 0.125
4 1 0.25 0.25 0
8 1 0.375 0.375 0.125
12 1 0.75 0.25 0
16 1 0.875 0.375 0.125
3 1 0.25 0 0.25
7 1 0.375 0.125 0.375
11 1 0.75 0 0.25
15 1 0.875 0.125 0.375
2 1 0 0.25 0.25
6 1 0.125 0.375 0.375
10 1 0.499855 0.253637 0.257294
14 1 0.613719 0.375371 0.373441
17 1 0 0 0.5
21 1 0.125 0.125 0.625
25 1 0.5 0 0.5
29 1 0.625 0.125 0.625
20 1 0.243703 0.250305 0.497832
24 1 0.875 0.375 0.625
28 1 0.74954 0.254848 0.489652
19 1 0.25 0 0.75
23 1 0.375 0.125 0.875
27 1 0.75 0 0.75
31 1 0.875 0.125 0.875
18 1 0 0.25 0.75
22 1 0.125 0.375 0.875
26 1 0.509966 0.239247 0.759797
30 1 0.625 0.375 0.875
32 1 0 0.5 0
36 1 0.125 0.625 0.125
40 1 0.5 0.5 0
44 1 0.625 0.625 0.125
35 1 0.25 0.75 0
39 1 0.375 0.875 0.125
43 1 0.75 0.75 0
47 1 0.875 0.875 0.125
34 1 0.253102 0.490462 0.244081
38 1 0.374682 0.615378 0.369558
42 1 0.758538 0.497366 0.256763
46 1 0.875 0.625 0.375
33 1 0 0.75 0.25
37 1 0.125 0.875 0.375
41 1 0.509748 0.754353 0.249146
45 1 0.625 0.875 0.375
48 1 0 0.5 0.5
52 1 0.125 0.625 0.625
56 1 0.493413 0.493176 0.497509
51 1 0.253819 0.747964 0.509862
55 1 0.375 0.875 0.625
59 1 0.755168 0.760645 0.491175
60 1 0.875 0.875 0.625
50 1 0.246653 0.507106 0.75874
54 1 0.375 0.625 0.875
58 1 0.747016 0.509017 0.743337
62 1 0.875 0.625 0.875
49 1 0 0.75 0.75
53 1 0.125 0.875 0.875
57 1 0.490828 0.757194 0.752267
61 1 0.625 0.875 0.875
ITEM: TIMESTEP
1800
ITEM: NUMBER OF ATOMS
62
ITEM: BOX BOUNDS pp pp pp
0.0000000000000000e+00 1.0859999999999999e+01
0.0000000000000000e+00 1.0859999999999999e+01
0.0000000000000000e+00 1.0859999999999999e+01
ITEM: ATOMS id type xs ys zs
1 1 0 0 0
5 1 0.125 0.125 0.125
9 1 0.5 0 0
13 1 0.625 0.125 0.125
4 1 0.25 0.25 0
8 1 0.375 0.375 0.125
12 1 0.75 0.25 0
16 1 0.875 0.375 0.125
3 1 0.25 0 0.25
7 1 0.375 0.125 0.375
11 1 0.75 0 0.25
15 1 0.875 0.125 0.375
2 1 0 0.25 0.25
6 1 0.125 0.375 0.375
10 1 0.499913 0.257138 0.257905