ITEM: TIMESTEP
0
ITEM: NUMBER OF ATOMS
62
ITEM: BOX BOUNDS pp pp pp
0.0000000000000000e+00 1.0859999999999999e+01
0.0000000000000000e+00 1.0859999999999999e+01
0.0000000000000000e+00 1.0859999999999999e+01
ITEM: ATOMS id type xs ys zs
1 1 0 0 0
5 1 0.125 0.125 0.125
9 1 0.5 0 0
13 1 0.625 0.125 0.125
4 1 0.25 0.25 0
8 1 0.375 0.375 0.125
12 1 0.75 0.25 0
16 1 0.875 0.375 0.125
3 1 0.25 0 0.25
7 1 0.375 0.125 0.375
11 1 0.75 0 0.25
15 1 0.875 0.125 0.375
2 1 0 0.25 0.25
6 1 0.125 0.375 0.375
10 1 0.5 0.25 0.25
14 1 0.625 0.375 0.375
17 1 0 0 0.5
21 1 0.125 0.125 0.625
25 1 0.5 0 0.5
29 1 0.625 0.125 0.625
20 1 0.25 0.25 0.5
24 1 0.375 0.375 0.625
28 1 0.75 0.25 0.5
32 1 0.875 0.375 0.625
19 1 0.25 0 0.75
23 1 0.375 0.125 0.875
27 1 0.75 0 0.75
31 1 0.875 0.125 0.875
18 1 0 0.25 0.75
22 1 0.125 0.375 0.875
26 1 0.5 0.25 0.75
30 1 0.625 0.375 0.875
33 1 0 0.5 0
37 1 0.125 0.625 0.125
41 1 0.5 0.5 0
45 1 0.625 0.625 0.125
36 1 0.25 0.75 0
40 1 0.375 0.875 0.125
44 1 0.75 0.75 0
48 1 0.875 0.875 0.125
35 1 0.25 0.5 0.25
39 1 0.375 0.625 0.375
43 1 0.75 0.5 0.25
47 1 0.875 0.625 0.375
34 1 0 0.75 0.25
38 1 0.125 0.875 0.375
42 1 0.5 0.75 0.25
46 1 0.625 0.875 0.375
49 1 0 0.5 0.5
53 1 0.125 0.625 0.625
52 1 0.25 0.75 0.5
56 1 0.375 0.875 0.625
57 1 0.875 0.875 0.625
60 1 0.75 0.75 0.5
51 1 0.25 0.5 0.75
55 1 0.375 0.625 0.875
59 1 0.75 0.5 0.75
61 1 0.875 0.625 0.875
50 1 0 0.75 0.75
54 1 0.125 0.875 0.875
58 1 0.5 0.75 0.75
62 1 0.625 0.875 0.875
ITEM: TIMESTEP
100
ITEM: NUMBER OF ATOMS
62
ITEM: BOX BOUNDS pp pp pp
0.0000000000000000e+00 1.0859999999999999e+01
0.0000000000000000e+00 1.0859999999999999e+01
0.0000000000000000e+00 1.0859999999999999e+01
ITEM: ATOMS id type xs ys zs
1 1 0 0 0
5 1 0.125 0.125 0.125
9 1 0.5 0 0
13 1 0.625 0.125 0.125
4 1 0.25 0.25 0
8 1 0.375 0.375 0.125
12 1 0.75 0.25 0
16 1 0.875 0.375 0.125
3 1 0.25 0 0.25
7 1 0.375 0.125 0.375
11 1 0.75 0 0.25
15 1 0.875 0.125 0.375
2 1 0 0.25 0.25
6 1 0.125 0.375 0.375
10 1 0.494385 0.249529 0.253129
14 1 0.626914 0.378698 0.377147
17 1 0 0 0.5
21 1 0.125 0.125 0.625
25 1 0.5 0 0.5
29 1 0.625 0.125 0.625
20 1 0.243124 0.253563 0.50273
24 1 0.377822 0.367648 0.624533
28 1 0.750125 0.246048 0.488113
32 1 0.875 0.375 0.625
19 1 0.25 0 0.75
23 1 0.375 0.125 0.875
27 1 0.75 0 0.75
31 1 0.875 0.125 0.875
18 1 0 0.25 0.75
22 1 0.125 0.375 0.875
26 1 0.502145 0.249 0.753059
30 1 0.625 0.375 0.875
33 1 0 0.5 0
37 1 0.125 0.625 0.125
41 1 0.5 0.5 0
45 1 0.625 0.625 0.125
36 1 0.25 0.75 0
40 1 0.375 0.875 0.125
44 1 0.75 0.75 0
48 1 0.875 0.875 0.125
35 1 0.252825 0.502359 0.245177
39 1 0.384109 0.626549 0.376787
43 1 0.748131 0.496714 0.251759
47 1 0.875 0.625 0.375
34 1 0 0.75 0.25
38 1 0.125 0.875 0.375
42 1 0.505303 0.742165 0.257148
46 1 0.625 0.875 0.375
49 1 0 0.5 0.5
53 1 0.125 0.625 0.625
52 1 0.251742 0.746007 0.494343
56 1 0.375 0.875 0.625
57 1 0.875 0.875 0.625
60 1 0.750558 0.76426 0.498827
51 1 0.250929 0.500143 0.755636
55 1 0.375 0.625 0.875
59 1 0.747322 0.50185 0.745702
61 1 0.875 0.625 0.875
50 1 0 0.75 0.75
54 1 0.125 0.875 0.875
58 1 0.490924 0.750801 0.751447
62 1 0.625 0.875 0.875
ITEM: TIMESTEP
200
ITEM: NUMBER OF ATOMS
62
ITEM: BOX BOUNDS pp pp pp
0.0000000000000000e+00 1.0859999999999999e+01
0.0000000000000000e+00 1.0859999999999999e+01
0.0000000000000000e+00 1.0859999999999999e+01
ITEM: ATOMS id type xs ys zs
1 1 0 0 0
5 1 0.125 0.125 0.125
9 1 0.5 0 0
13 1 0.625 0.125 0.125
4 1 0.25 0.25 0
8 1 0.375 0.375 0.125
12 1 0.75 0.25 0
16 1 0.875 0.375 0.125
3 1 0.25 0 0.25
7 1 0.375 0.125 0.375
11 1 0.75 0 0.25
15 1 0.875 0.125 0.375
2 1 0 0.25 0.25
6 1 0.125 0.375 0.375
10 1 0.492687 0.250732 0.255291
14 1 0.626338 0.379887 0.377755
17 1 0 0 0.5
21 1 0.125 0.125 0.625
25 1 0.5 0 0.5
29 1 0.625 0.125 0.625
20 1 0.240119 0.254528 0.50404
24 1 0.37864 0.362983 0.626156
28 1 0.749262 0.244767 0.483117
32 1 0.875 0.375 0.625
19 1 0.25 0 0.75
23 1 0.375 0.125 0.875
27 1 0.75 0 0.75
31 1 0.875 0.125 0.875
18 1 0 0.25 0.75
22 1 0.125 0.375 0.875
26 1 0.503863 0.247509 0.754674
30 1 0.625 0.375 0.875
33 1 0 0.5 0
37 1 0.125 0.625 0.125
41 1 0.5 0.5 0
45 1 0.625 0.625 0.125
36 1 0.25 0.75 0
40 1 0.375 0.875 0.125
44 1 0.75 0.75 0
48 1 0.875 0.875 0.125
35 1 0.255835 0.504379 0.244347
39 1 0.389282 0.624239 0.378451
43 1 0.747611 0.496 0.252267
47 1 0.875 0.625 0.375
34 1 0 0.75 0.25
38 1 0.125 0.875 0.375
42 1 0.509958 0.739305 0.260157
46 1 0.625 0.875 0.375
49 1 0 0.5 0.5
53 1 0.125 0.625 0.625
52 1 0.253478 0.743824 0.491528
56 1 0.375 0.875 0.625
57 1 0.875 0.875 0.625
60 1 0.752986 0.772861 0.496511
51 1 0.252352 0.499139 0.756952
55 1 0.375 0.625 0.875
59 1 0.745649 0.502882 0.743225
61 1 0.875 0.625 0.875
50 1 0 0.75 0.75
54 1 0.125 0.875 0.875
58 1 0.485282 0.752837 0.753654
62 1 0.625 0.875 0.875
ITEM: TIMESTEP
300
ITEM: NUMBER OF ATOMS
62
ITEM: BOX BOUNDS pp pp pp
0.0000000000000000e+00 1.0859999999999999e+01
0.0000000000000000e+00 1.0859999999999999e+01
0.0000000000000000e+00 1.0859999999999999e+01
ITEM: ATOMS id type xs ys zs
1 1 0 0 0
5 1 0.125 0.125 0.125
9 1 0.5 0 0
13 1 0.625 0.125 0.125
4 1 0.25 0.25 0
8 1 0.375 0.375 0.125
12 1 0.75 0.25 0
16 1 0.875 0.375 0.125
3 1 0.25 0 0.25
7 1 0.375 0.125 0.375
11 1 0.75 0 0.25
15 1 0.875 0.125 0.375
2 1 0 0.25 0.25
6 1 0.125 0.375 0.375
10 1 0.495892 0.253346 0.255455
14 1 0.62279 0.378615 0.376655
17 1 0 0 0.5
21 1 0.125 0.125 0.625
25 1 0.5 0 0.5
29 1 0.625 0.125 0.625
20 1 0.242352 0.252053 0.50348
24 1 0.377163 0.362143 0.629758
28 1 0.747158 0.246848 0.487415
32 1 0.875 0.375 0.625
19 1 0.25 0 0.75
23 1 0.375 0.125 0.875
27 1 0.75 0 0.75
31 1 0.875 0.125 0.875
18 1 0 0.25 0.75
22 1 0.125 0.375 0.875
26 1 0.504806 0.245455 0.754599
30 1 0.625 0.375 0.875
33 1 0 0.5 0
37 1 0.125 0.625 0.125
41 1 0.5 0.5 0
45 1 0.625 0.625 0.125
36 1 0.25 0.75 0
40 1 0.375 0.875 0.125
44 1 0.75 0.75 0
48 1 0.875 0.875 0.125
35 1 0.258158 0.505344 0.248231
39 1 0.389974 0.617806 0.380043
43 1 0.748697 0.49845 0.251196
47 1 0.875 0.625 0.375
34 1 0 0.75 0.25
38 1 0.125 0.875 0.375
42 1 0.512352 0.742276 0.258089
46 1 0.625 0.875 0.375
49 1 0 0.5 0.5
53 1 0.125 0.625 0.625
52 1 0.254769 0.744042 0.492669
56 1 0.375 0.875 0.625
57 1 0.875 0.875 0.625
60 1 0.757608 0.772498 0.492826
51 1 0.25378 0.497008 0.753022
55 1 0.375 0.625 0.875
59 1 0.745328 0.502943 0.743257
61 1 0.875 0.625 0.875
50 1 0 0.75 0.75
54 1 0.125 0.875 0.875
58 1 0.485352 0.75622 0.756519
62 1 0.625 0.875 0.875
ITEM: TIMESTEP
400
ITEM: NUMBER OF ATOMS
62
ITEM: BOX BOUNDS pp pp pp
0.0000000000000000e+00 1.0859999999999999e+01
0.0000000000000000e+00 1.0859999999999999e+01
0.0000000000000000e+00 1.0859999999999999e+01
ITEM: ATOMS id type xs ys zs
1 1 0 0 0
5 1 0.125 0.125 0.125
9 1 0.5 0 0
13 1 0.625 0.125 0.125
4 1 0.25 0.25 0
8 1 0.375 0.375 0.125
12 1 0.75 0.25 0
16 1 0.875 0.375 0.125
3 1 0.25 0 0.25
7 1 0.375 0.125 0.375
11 1 0.75 0 0.25
15 1 0.875 0.125 0.375
2 1 0 0.25 0.25
6 1 0.125 0.375 0.375
10 1 0.501434 0.255148 0.253072
14 1 0.618893 0.376739 0.374428
17 1 0 0 0.5
21 1 0.125 0.125 0.625
25 1 0.5 0 0.5
29 1 0.625 0.125 0.625
20 1 0.248908 0.247375 0.501181
24 1 0.374005 0.364065 0.633863
28 1 0.745191 0.251268 0.498554
32 1 0.875 0.375 0.625
19 1 0.25 0 0.75
23 1 0.375 0.125 0.875
27 1 0.75 0 0.75
31 1 0.875 0.125 0.875
18 1 0 0.25 0.75
22 1 0.125 0.375 0.875
26 1 0.504681 0.243842 0.753423
30 1 0.625 0.375 0.875
33 1 0 0.5 0
37 1 0.125 0.625 0.125
41 1 0.5 0.5 0
45 1 0.625 0.625 0.125
36 1 0.25 0.75 0
40 1 0.375 0.875 0.125
44 1 0.75 0.75 0
48 1 0.875 0.875 0.125
35 1 0.258272 0.504102 0.254401
39 1 0.388445 0.611567 0.380943
43 1 0.750048 0.502134 0.249656
47 1 0.875 0.625 0.375
34 1 0 0.75 0.25
38 1 0.125 0.875 0.375
42 1 0.509411 0.747916 0.253031
46 1 0.625 0.875 0.375
49 1 0 0.5 0.5
53 1 0.125 0.625 0.625
52 1 0.255591 0.745648 0.496953
56 1 0.375 0.875 0.625
57 1 0.875 0.875 0.625
60 1 0.763273 0.764088 0.488075
51 1 0.254337 0.495084 0.746535
55 1 0.375 0.625 0.875
59 1 0.746544 0.502045 0.745818
61 1 0.875 0.625 0.875
50 1 0 0.75 0.75
54 1 0.125 0.875 0.875
58 1 0.490464 0.760041 0.759519
62 1 0.625 0.875 0.875
ITEM: TIMESTEP
500
ITEM: NUMBER OF ATOMS
62
ITEM: BOX BOUNDS pp pp pp
0.0000000000000000e+00 1.0859999999999999e+01
0.0000000000000000e+00 1.0859999999999999e+01
0.0000000000000000e+00 1.0859999999999999e+01
ITEM: ATOMS id type xs ys zs
1 1 0 0 0
5 1 0.125 0.125 0.125
9 1 0.5 0 0
13 1 0.625 0.125 0.125
4 1 0.25 0.25 0
8 1 0.375 0.375 0.125
12 1 0.75 0.25 0
16 1 0.875 0.375 0.125
3 1 0.25 0 0.25
7 1 0.375 0.125 0.375
11 1 0.75 0 0.25
15 1 0.875 0.125 0.375
2 1 0 0.25 0.25
6 1 0.125 0.375 0.375
10 1 0.505101 0.253642 0.248231
14 1 0.618353 0.376478 0.372976
17 1 0 0 0.5
21 1 0.125 0.125 0.625
25 1 0.5 0 0.5
29 1 0.625 0.125 0.625
20 1 0.256253 0.243499 0.498452
24 1 0.371212 0.365677 0.635643
28 1 0.744521 0.256136 0.510126
32 1 0.875 0.375 0.625
19 1 0.25 0 0.75
23 1 0.375 0.125 0.875
27 1 0.75 0 0.75
31 1 0.875 0.125 0.875
18 1 0 0.25 0.75
22 1 0.125 0.375 0.875
26 1 0.503329 0.244039 0.75222
30 1 0.625 0.375 0.875
33 1 0 0.5 0
37 1 0.125 0.625 0.125
41 1 0.5 0.5 0
45 1 0.625 0.625 0.125
36 1 0.25 0.75 0
40 1 0.375 0.875 0.125
44 1 0.75 0.75 0
48 1 0.875 0.875 0.125
35 1 0.255081 0.499971 0.258978
39 1 0.386684 0.609787 0.381567
43 1 0.750374 0.504422 0.248841
47 1 0.875 0.625 0.375
34 1 0 0.75 0.25
38 1 0.125 0.875 0.375
42 1 0.50117 0.753002 0.247577
46 1 0.625 0.875 0.375
49 1 0 0.5 0.5
53 1 0.125 0.625 0.625
52 1 0.255949 0.747097 0.502069
56 1 0.375 0.875 0.625
57 1 0.875 0.875 0.625
60 1 0.766909 0.753114 0.484558
51 1 0.252566 0.495666 0.742434
55 1 0.375 0.625 0.875
59 1 0.749224 0.50034 0.750211
61 1 0.875 0.625 0.875
50 1 0 0.75 0.75
54 1 0.125 0.875 0.875
58 1 0.497115 0.76225 0.761218
62 1 0.625 0.875 0.875
ITEM: TIMESTEP
600
ITEM: NUMBER OF ATOMS
62
ITEM: BOX BOUNDS pp pp pp
0.0000000000000000e+00 1.0859999999999999e+01
0.0000000000000000e+00 1.0859999999999999e+01
0.0000000000000000e+00 1.0859999999999999e+01
ITEM: ATOMS id type xs ys zs
1 1 0 0 0
5 1 0.125 0.125 0.125
9 1 0.5 0 0
13 1 0.625 0.125 0.125
4 1 0.25 0.25 0
8 1 0.375 0.375 0.125
12 1 0.75 0.25 0
16 1 0.875 0.375 0.125
3 1 0.25 0 0.25
7 1 0.375 0.125 0.375
11 1 0.75 0 0.25
15 1 0.875 0.125 0.375
2 1 0 0.25 0.25
6 1 0.125 0.375 0.375
10 1 0.504828 0.249461 0.243352
14 1 0.622212 0.377834 0.372992
17 1 0 0 0.5
21 1 0.125 0.125 0.625
25 1 0.5 0 0.5
29 1 0.625 0.125 0.625
20 1 0.259673 0.243411 0.497369
24 1 0.370492 0.365189 0.63346
28 1 0.744544 0.259398 0.51553
32 1 0.875 0.375 0.625
19 1 0.25 0 0.75
23 1 0.375 0.125 0.875
27 1 0.75 0 0.75
31 1 0.875 0.125 0.875
18 1 0 0.25 0.75
22 1 0.125 0.375 0.875
26 1 0.501171 0.246392 0.751738
30 1 0.625 0.375 0.875
33 1 0 0.5 0
37 1 0.125 0.625 0.125
41 1 0.5 0.5 0
45 1 0.625 0.625 0.125
36 1 0.25 0.75 0
40 1 0.375 0.875 0.125
44 1 0.75 0.75 0
48 1 0.875 0.875 0.125
35 1 0.250071 0.494781 0.259443
39 1 0.384527 0.61357 0.381911
43 1 0.749562 0.503943 0.249251
47 1 0.875 0.625 0.375
34 1 0 0.75 0.25
38 1 0.125 0.875 0.375
42 1 0.492229 0.75492 0.244785
46 1 0.625 0.875 0.375
49 1 0 0.5 0.5
53 1 0.125 0.625 0.625
52 1 0.255533 0.747392 0.50527
56 1 0.375 0.875 0.625
57 1 0.875 0.875 0.625
60 1 0.764596 0.746702 0.486154
51 1 0.248403 0.499339 0.743778
55 1 0.375 0.625 0.875
59 1 0.75293 0.498003 0.755084
61 1 0.875 0.625 0.875
50 1 0 0.75 0.75
54 1 0.125 0.875 0.875
58 1 0.501227 0.760691 0.759736
62 1 0.625 0.875 0.875
ITEM: TIMESTEP
700
ITEM: NUMBER OF ATOMS
62
ITEM: BOX BOUNDS pp pp pp
0.0000000000000000e+00 1.0859999999999999e+01
0.0000000000000000e+00 1.0859999999999999e+01
0.0000000000000000e+00 1.0859999999999999e+01
ITEM: ATOMS id type xs ys zs
1 1 0 0 0
5 1 0.125 0.125 0.125
9 1 0.5 0 0
13 1 0.625 0.125 0.125
4 1 0.25 0.25 0
8 1 0.375 0.375 0.125
12 1 0.75 0.25 0
16 1 0.875 0.375 0.125
3 1 0.25 0 0.25
7 1 0.375 0.125 0.375
11 1 0.75 0 0.25
15 1 0.875 0.125 0.375
2 1 0 0.25 0.25
6 1 0.125 0.375 0.375
10 1 0.501412 0.245962 0.24231
14 1 0.627966 0.378473 0.373369
17 1 0 0 0.5
21 1 0.125 0.125 0.625
25 1 0.5 0 0.5
29 1 0.625 0.125 0.625
20 1 0.256668 0.24724 0.498396
24 1 0.370933 0.365042 0.629138
28 1 0.744538 0.259512 0.511998
32 1 0.875 0.375 0.625
19 1 0.25 0 0.75
23 1 0.375 0.125 0.875
27 1 0.75 0 0.75
31 1 0.875 0.125 0.875
18 1 0 0.25 0.75
22 1 0.125 0.375 0.875
26 1 0.499253 0.249648 0.751812
30 1 0.625 0.375 0.875
33 1 0 0.5 0
37 1 0.125 0.625 0.125
41 1 0.5 0.5 0
45 1 0.625 0.625 0.125
36 1 0.25 0.75 0
40 1 0.375 0.875 0.125
44 1 0.75 0.75 0
48 1 0.875 0.875 0.125
35 1 0.246707 0.492463 0.255544
39 1 0.380322 0.621001 0.381045
43 1 0.748692 0.501346 0.250438
47 1 0.875 0.625 0.375
34 1 0 0.75 0.25
38 1 0.125 0.875 0.375
42 1 0.487848 0.752089 0.246821
46 1 0.625 0.875 0.375
49 1 0 0.5 0.5
53 1 0.125 0.625 0.625
52 1 0.254018 0.746774 0.504978
56 1 0.375 0.875 0.625
57 1 0.875 0.875 0.625
60 1 0.755619 0.747129 0.493919
51 1 0.244826 0.50332 0.749406
55 1 0.375 0.625 0.875
59 1 0.756872 0.495155 0.75887
61 1 0.875 0.625 0.875
50 1 0 0.75 0.75
54 1 0.125 0.875 0.875
58 1 0.501342 0.755127 0.754734
62 1 0.625 0.875 0.875
ITEM: TIMESTEP
800
ITEM: NUMBER OF ATOMS
62
ITEM: BOX BOUNDS pp pp pp
0.0000000000000000e+00 1.0859999999999999e+01
0.0000000000000000e+00 1.0859999999999999e+01
0.0000000000000000e+00 1.0859999999999999e+01
ITEM: ATOMS id type xs ys zs
1 1 0 0 0
5 1 0.125 0.125 0.125
9 1 0.5 0 0
13 1 0.625 0.125 0.125
4 1 0.25 0.25 0
8 1 0.375 0.375 0.125
12 1 0.75 0.25 0
16 1 0.875 0.375 0.125
3 1 0.25 0 0.25
7 1 0.375 0.125 0.375
11 1 0.75 0 0.25
15 1 0.875 0.125 0.375
2 1 0 0.25 0.25
6 1 0.125 0.375 0.375
10 1 0.497154 0.245532 0.246427
14 1 0.631664 0.376538 0.373202
17 1 0 0 0.5
21 1 0.125 0.125 0.625
25 1 0.5 0 0.5
29 1 0.625 0.125 0.625
20 1 0.248576 0.251959 0.499847
24 1 0.371112 0.368536 0.625808
28 1 0.745732 0.255852 0.501726
32 1 0.875 0.375 0.625
19 1 0.25 0 0.75
23 1 0.375 0.125 0.875
27 1 0.75 0 0.75
31 1 0.875 0.125 0.875
18 1 0 0.25 0.75
22 1 0.125 0.375 0.875
26 1 0.498402 0.251984 0.751609
30 1 0.625 0.375 0.875
33 1 0 0.5 0
37 1 0.125 0.625 0.125
41 1 0.5 0.5 0
45 1 0.625 0.625 0.125
36 1 0.25 0.75 0
40 1 0.375 0.875 0.125
44 1 0.75 0.75 0
48 1 0.875 0.875 0.125
35 1 0.246856 0.495195 0.249081
39 1 0.373008 0.628442 0.378397
43 1 0.749336 0.498786 0.251049
47 1 0.875 0.625 0.375
34 1 0 0.75 0.25
38 1 0.125 0.875 0.375
42 1 0.490312 0.746424 0.252157
46 1 0.625 0.875 0.375
49 1 0 0.5 0.5
53 1 0.125 0.625 0.625
52 1 0.25116 0.746911 0.501908
56 1 0.375 0.875 0.625
57 1 0.875 0.875 0.625
60 1 0.744061 0.751052 0.504363
51 1 0.244463 0.504869 0.755653
55 1 0.375 0.625 0.875
59 1 0.760075 0.491998 0.760524
61 1 0.875 0.625 0.875
50 1 0 0.75 0.75
54 1 0.125 0.875 0.875
58 1 0.499058 0.747779 0.748126
62 1 0.625 0.875 0.875
ITEM: TIMESTEP
900
ITEM: NUMBER OF ATOMS
62
ITEM: BOX BOUNDS pp pp pp
0.0000000000000000e+00 1.0859999999999999e+01
0.0000000000000000e+00 1.0859999999999999e+01
0.0000000000000000e+00 1.0859999999999999e+01
ITEM: ATOMS id type xs ys zs
1 1 0 0 0
5 1 0.125 0.125 0.125
9 1 0.5 0 0
13 1 0.625 0.125 0.125
4 1 0.25 0.25 0
8 1 0.375 0.375 0.125
12 1 0.75 0.25 0
16 1 0.875 0.375 0.125
3 1 0.25 0 0.25
7 1 0.375 0.125 0.375
11 1 0.75 0 0.25
15 1 0.875 0.125 0.375
2 1 0 0.25 0.25
6 1 0.125 0.375 0.375
10 1 0.4949 0.248438 0.253209
14 1 0.630766 0.372379 0.371693
17 1 0 0 0.5
21 1 0.125 0.125 0.625
25 1 0.5 0 0.5
29 1 0.625 0.125 0.625
20 1 0.240332 0.254617 0.50073
24 1 0.370231 0.375885 0.624942
28 1 0.749675 0.248944 0.490809
32 1 0.875 0.375 0.625
19 1 0.25 0 0.75
23 1 0.375 0.125 0.875
27 1 0.75 0 0.75
31 1 0.875 0.125 0.875
18 1 0 0.25 0.75
22 1 0.125 0.375 0.875
26 1 0.498526 0.252693 0.75028
30 1 0.625 0.375 0.875
33 1 0 0.5 0
37 1 0.125 0.625 0.125
41 1 0.5 0.5 0
45 1 0.625 0.625 0.125
36 1 0.25 0.75 0
40 1 0.375 0.875 0.125
44 1 0.75 0.75 0
48 1 0.875 0.875 0.125
35 1 0.249387 0.501351 0.243604
39 1 0.363522 0.631995 0.373895
43 1 0.751712 0.497943 0.250169
47 1 0.875 0.625 0.375
34 1 0 0.75 0.25
38 1 0.125 0.875 0.375
42 1 0.498397 0.742682 0.256675
46 1 0.625 0.875 0.375
49 1 0 0.5 0.5
53 1 0.125 0.625 0.625
52 1 0.246843 0.749736 0.498699
56 1 0.375 0.875 0.625
57 1 0.875 0.875 0.625
60 1 0.734493 0.754646 0.513613
51 1 0.247179 0.503549 0.758756
55 1 0.375 0.625 0.875
59 1 0.761596 0.489198 0.760072
61 1 0.875 0.625 0.875
50 1 0 0.75 0.75
54 1 0.125 0.875 0.875
58 1 0.49683 0.74148 0.742372
62 1 0.625 0.875 0.875
ITEM: TIMESTEP
1000
ITEM: NUMBER OF ATOMS
62
ITEM: BOX BOUNDS pp pp pp
0.0000000000000000e+00 1.0859999999999999e+01
0.0000000000000000e+00 1.0859999999999999e+01
0.0000000000000000e+00 1.0859999999999999e+01
ITEM: ATOMS id type xs ys zs
1 1 0 0 0
5 1 0.125 0.125 0.125
9 1 0.5 0 0
13 1 0.625 0.125 0.125
4 1 0.25 0.25 0
8 1 0.375 0.375 0.125
12 1 0.75 0.25 0
16 1 0.875 0.375 0.125
3 1 0.25 0 0.25
7 1 0.375 0.125 0.375
11 1 0.75 0 0.25
15 1 0.875 0.125 0.375
2 1 0 0.25 0.25
6 1 0.125 0.375 0.375
10 1 0.49571 0.252955 0.258182
14 1 0.627139 0.368046 0.368986
17 1 0 0 0.5
21 1 0.125 0.125 0.625
25 1 0.5 0 0.5
29 1 0.625 0.125 0.625
20 1 0.237494 0.254681 0.501654
24 1 0.368295 0.384038 0.625837
28 1 0.75414 0.242124 0.485512
32 1 0.875 0.375 0.625
19 1 0.25 0 0.75
23 1 0.375 0.125 0.875
27 1 0.75 0 0.75
31 1 0.875 0.125 0.875
18 1 0 0.25 0.75
22 1 0.125 0.375 0.875
26 1 0.498866 0.252671 0.747674
30 1 0.625 0.375 0.875
33 1 0 0.5 0
37 1 0.125 0.625 0.125
41 1 0.5 0.5 0
45 1 0.625 0.625 0.125
36 1 0.25 0.75 0
40 1 0.375 0.875 0.125
44 1 0.75 0.75 0
48 1 0.875 0.875 0.125
35 1 0.25158 0.506762 0.241628
39 1 0.355292 0.631851 0.36796
43 1 0.753839 0.498711 0.248451
47 1 0.875 0.625 0.375
34 1 0 0.75 0.25
38 1 0.125 0.875 0.375
42 1 0.507686 0.74297 0.258171
46 1 0.625 0.875 0.375
49 1 0 0.5 0.5
53 1 0.125 0.625 0.625
52 1 0.242151 0.754767 0.497849
56 1 0.375 0.875 0.625
57 1 0.875 0.875 0.625
60 1 0.729068 0.756137 0.519848
51 1 0.250912 0.500668 0.757057
55 1 0.375 0.625 0.875
59 1 0.760831 0.487944 0.758407
61 1 0.875 0.625 0.875
50 1 0 0.75 0.75
54 1 0.125 0.875 0.875
58 1 0.496197 0.738041 0.73901
62 1 0.625 0.875 0.875
ITEM: TIMESTEP
1100
ITEM: NUMBER OF ATOMS
62
ITEM: BOX BOUNDS pp pp pp
0.0000000000000000e+00 1.0859999999999999e+01
0.0000000000000000e+00 1.0859999999999999e+01
0.0000000000000000e+00 1.0859999999999999e+01
ITEM: ATOMS id type xs ys zs
1 1 0 0 0
5 1 0.125 0.125 0.125
9 1 0.5 0 0
13 1 0.625 0.125 0.125
4 1 0.25 0.25 0
8 1 0.375 0.375 0.125
12 1 0.75 0.25 0
16 1 0.875 0.375 0.125
3 1 0.25 0 0.25
7 1 0.375 0.125 0.375
11 1 0.75 0 0.25
15 1 0.875 0.125 0.375
2 1 0 0.25 0.25
6 1 0.125 0.375 0.375
10 1 0.497162 0.25527 0.257256
14 1 0.625987 0.366292 0.36755
17 1 0 0 0.5
21 1 0.125 0.125 0.625
25 1 0.5 0 0.5
29 1 0.625 0.125 0.625
20 1 0.242283 0.253268 0.502761
24 1 0.3672 0.388588 0.626167
28 1 0.75456 0.240368 0.488958
32 1 0.875 0.375 0.625
19 1 0.25 0 0.75
23 1 0.375 0.125 0.875
27 1 0.75 0 0.75
31 1 0.875 0.125 0.875
18 1 0 0.25 0.75
22 1 0.125 0.375 0.875
26 1 0.4986 0.253279 0.744704
30 1 0.625 0.375 0.875
33 1 0 0.5 0
37 1 0.125 0.625 0.125
41 1 0.5 0.5 0
45 1 0.625 0.625 0.125
36 1 0.25 0.75 0
40 1 0.375 0.875 0.125
44 1 0.75 0.75 0
48 1 0.875 0.875 0.125
35 1 0.250586 0.506807 0.242052
39 1 0.352161 0.633215 0.363044
43 1 0.753573 0.500005 0.247169
47 1 0.875 0.625 0.375
34 1 0 0.75 0.25
38 1 0.125 0.875 0.375
42 1 0.512702 0.745698 0.256618
46 1 0.625 0.875 0.375
49 1 0 0.5 0.5
53 1 0.125 0.625 0.625
52 1 0.239765 0.758694 0.50005
56 1 0.375 0.875 0.625
57 1 0.875 0.875 0.625
60 1 0.7291 0.754467 0.521425
51 1 0.252555 0.499078 0.752679
55 1 0.375 0.625 0.875
59 1 0.757861 0.489343 0.756421
61 1 0.875 0.625 0.875
50 1 0 0.75 0.75
54 1 0.125 0.875 0.875
58 1 0.497526 0.738188 0.738712
62 1 0.625 0.875 0.875
ITEM: TIMESTEP
1200
ITEM: NUMBER OF ATOMS
62
ITEM: BOX BOUNDS pp pp pp
0.0000000000000000e+00 1.0859999999999999e+01
0.0000000000000000e+00 1.0859999999999999e+01
0.0000000000000000e+00 1.0859999999999999e+01
ITEM: ATOMS id type xs ys zs
1 1 0 0 0
5 1 0.125 0.125 0.125
9 1 0.5 0 0
13 1 0.625 0.125 0.125
4 1 0.25 0.25 0
8 1 0.375 0.375 0.125
12 1 0.75 0.25 0
16 1 0.875 0.375 0.125
3 1 0.25 0 0.25
7 1 0.375 0.125 0.375
11 1 0.75 0 0.25
15 1 0.875 0.125 0.375
2 1 0 0.25 0.25
6 1 0.125 0.375 0.375
10 1 0.497469 0.252908 0.250156
14 1 0.629579 0.368312 0.36895
17 1 0 0 0.5
21 1 0.125 0.125 0.625
25 1 0.5 0 0.5
29 1 0.625 0.125 0.625
20 1 0.252245 0.251611 0.503207
24 1 0.369391 0.386875 0.623824
28 1 0.750513 0.244819 0.499318
32 1 0.875 0.375 0.625
19 1 0.25 0 0.75
23 1 0.375 0.125 0.875
27 1 0.75 0 0.75
31 1 0.875 0.125 0.875
18 1 0 0.25 0.75
22 1 0.125 0.375 0.875
26 1 0.497464 0.254847 0.74282
30 1 0.625 0.375 0.875
33 1 0 0.5 0
37 1 0.125 0.625 0.125
41 1 0.5 0.5 0
45 1 0.625 0.625 0.125
36 1 0.25 0.75 0
40 1 0.375 0.875 0.125
44 1 0.75 0.75 0
48 1 0.875 0.875 0.125
35 1 0.245946 0.500189 0.243686
39 1 0.35491 0.639207 0.360989
43 1 0.750878 0.500927 0.247155
47 1 0.875 0.625 0.375
34 1 0 0.75 0.25
38 1 0.125 0.875 0.375
42 1 0.51028 0.749251 0.252205
46 1 0.625 0.875 0.375
49 1 0 0.5 0.5
53 1 0.125 0.625 0.625
52 1 0.241355 0.758919 0.504344
56 1 0.375 0.875 0.625
57 1 0.875 0.875 0.625
60 1 0.734439 0.750207 0.517643
51 1 0.250017 0.501092 0.749366
55 1 0.375 0.625 0.875
59 1 0.753569 0.493579 0.754324
61 1 0.875 0.625 0.875
50 1 0 0.75 0.75
54 1 0.125 0.875 0.875
58 1 0.50034 0.74191 0.741689
62 1 0.625 0.875 0.875
ITEM: TIMESTEP
1300
ITEM: NUMBER OF ATOMS
62
ITEM: BOX BOUNDS pp pp pp
0.0000000000000000e+00 1.0859999999999999e+01
0.0000000000000000e+00 1.0859999999999999e+01
0.0000000000000000e+00 1.0859999999999999e+01
ITEM: ATOMS id type xs ys zs
1 1 0 0 0
5 1 0.125 0.125 0.125
9 1 0.5 0 0
13 1 0.625 0.125 0.125
4 1 0.25 0.25 0
8 1 0.375 0.375 0.125
12 1 0.75 0.25 0
16 1 0.875 0.375 0.125
3 1 0.25 0 0.25
7 1 0.375 0.125 0.375
11 1 0.75 0 0.25
15 1 0.875 0.125 0.375
2 1 0 0.25 0.25
6 1 0.125 0.375 0.375
10 1 0.498385 0.247839 0.242137
14 1 0.634224 0.371723 0.371337
17 1 0 0 0.5
21 1 0.125 0.125 0.625
25 1 0.5 0 0.5
29 1 0.625 0.125 0.625
20 1 0.261498 0.250169 0.502165
24 1 0.374491 0.381315 0.62029
28 1 0.746197 0.252246 0.510486
32 1 0.875 0.375 0.625
19 1 0.25 0 0.75
23 1 0.375 0.125 0.875
27 1 0.75 0 0.75
31 1 0.875 0.125 0.875
18 1 0 0.25 0.75
22 1 0.125 0.375 0.875
26 1 0.496276 0.256186 0.743207
30 1 0.625 0.375 0.875
33 1 0 0.5 0
37 1 0.125 0.625 0.125
41 1 0.5 0.5 0
45 1 0.625 0.625 0.125
36 1 0.25 0.75 0
40 1 0.375 0.875 0.125
44 1 0.75 0.75 0
48 1 0.875 0.875 0.125
35 1 0.241304 0.491463 0.247109
39 1 0.359863 0.646887 0.360213
43 1 0.748032 0.501269 0.248475
47 1 0.875 0.625 0.375
34 1 0 0.75 0.25
38 1 0.125 0.875 0.375
42 1 0.502162 0.753549 0.245872
46 1 0.625 0.875 0.375
49 1 0 0.5 0.5
53 1 0.125 0.625 0.625
52 1 0.245918 0.755746 0.508251
56 1 0.375 0.875 0.625
57 1 0.875 0.875 0.625
60 1 0.743659 0.745268 0.509148
51 1 0.245599 0.504736 0.747979
55 1 0.375 0.625 0.875
59 1 0.749317 0.499585 0.751928
61 1 0.875 0.625 0.875
50 1 0 0.75 0.75
54 1 0.125 0.875 0.875
58 1 0.503467 0.74841 0.747535
62 1 0.625 0.875 0.875
ITEM: TIMESTEP
1400
ITEM: NUMBER OF ATOMS
62
ITEM: BOX BOUNDS pp pp pp
0.0000000000000000e+00 1.0859999999999999e+01
0.0000000000000000e+00 1.0859999999999999e+01
0.0000000000000000e+00 1.0859999999999999e+01
ITEM: ATOMS id type xs ys zs
1 1 0 0 0
5 1 0.125 0.125 0.125
9 1 0.5 0 0
13 1 0.625 0.125 0.125
4 1 0.25 0.25 0
8 1 0.375 0.375 0.125
12 1 0.75 0.25 0
16 1 0.875 0.375 0.125
3 1 0.25 0 0.25
7 1 0.375 0.125 0.375
11 1 0.75 0 0.25
15 1 0.875 0.125 0.375
2 1 0 0.25 0.25
6 1 0.125 0.375 0.375
10 1 0.500506 0.243836 0.239041
14 1 0.635524 0.373529 0.372873
17 1 0 0 0.5
21 1 0.125 0.125 0.625
25 1 0.5 0 0.5
29 1 0.625 0.125 0.625
20 1 0.26463 0.249035 0.499706
24 1 0.380167 0.376825 0.618526
28 1 0.74454 0.258794 0.51652
32 1 0.875 0.375 0.625
19 1 0.25 0 0.75
23 1 0.375 0.125 0.875
27 1 0.75 0 0.75
31 1 0.875 0.125 0.875
18 1 0 0.25 0.75
22 1 0.125 0.375 0.875
26 1 0.4966 0.255484 0.746289
30 1 0.625 0.375 0.875
33 1 0 0.5 0
37 1 0.125 0.625 0.125
41 1 0.5 0.5 0
45 1 0.625 0.625 0.125
36 1 0.25 0.75 0
40 1 0.375 0.875 0.125
44 1 0.75 0.75 0
48 1 0.875 0.875 0.125
35 1 0.240899 0.487183 0.250482
39 1 0.36272 0.65129 0.359582
43 1 0.747736 0.501573 0.250245
47 1 0.875 0.625 0.375
34 1 0 0.75 0.25
38 1 0.125 0.875 0.375
42 1 0.494607 0.758244 0.239909
46 1 0.625 0.875 0.375
49 1 0 0.5 0.5
53 1 0.125 0.625 0.625
52 1 0.250879 0.751491 0.509242
56 1 0.375 0.875 0.625
57 1 0.875 0.875 0.625
60 1 0.754786 0.741688 0.497495
51 1 0.243858 0.505856 0.747749
55 1 0.375 0.625 0.875
59 1 0.746207 0.505412 0.749292
61 1 0.875 0.625 0.875
50 1 0 0.75 0.75
54 1 0.125 0.875 0.875
58 1 0.504936 0.755644 0.754544
62 1 0.625 0.875 0.875
ITEM: TIMESTEP
1500
ITEM: NUMBER OF ATOMS
62
ITEM: BOX BOUNDS pp pp pp
0.0000000000000000e+00 1.0859999999999999e+01
0.0000000000000000e+00 1.0859999999999999e+01
0.0000000000000000e+00 1.0859999999999999e+01
ITEM: ATOMS id type xs ys zs
1 1 0 0 0
5 1 0.125 0.125 0.125
9 1 0.5 0 0
13 1 0.625 0.125 0.125
4 1 0.25 0.25 0
8 1 0.375 0.375 0.125
12 1 0.75 0.25 0
16 1 0.875 0.375 0.125
3 1 0.25 0 0.25
7 1 0.375 0.125 0.375
11 1 0.75 0 0.25
15 1 0.875 0.125 0.375
2 1 0 0.25 0.25
6 1 0.125 0.375 0.375
10 1 0.502323 0.243765 0.243074
14 1 0.632219 0.372877 0.372988
17 1 0 0 0.5
21 1 0.125 0.125 0.625
25 1 0.5 0 0.5
29 1 0.625 0.125 0.625
20 1 0.26012 0.249048 0.497269
24 1 0.38434 0.375375 0.619432
28 1 0.74494 0.261419 0.514765
32 1 0.875 0.375 0.625
19 1 0.25 0 0.75
23 1 0.375 0.125 0.875
27 1 0.75 0 0.75
31 1 0.875 0.125 0.875
18 1 0 0.25 0.75
22 1 0.125 0.375 0.875
26 1 0.499166 0.252089 0.751108
30 1 0.625 0.375 0.875
33 1 0 0.5 0
37 1 0.125 0.625 0.125
41 1 0.5 0.5 0
45 1 0.625 0.625 0.125
36 1 0.25 0.75 0
40 1 0.375 0.875 0.125
44 1 0.75 0.75 0
48 1 0.875 0.875 0.125
35 1 0.246054 0.490809 0.251465
39 1 0.362414 0.649591 0.358711
43 1 0.750403 0.502085 0.25147
47 1 0.875 0.625 0.375
34 1 0 0.75 0.25
38 1 0.125 0.875 0.375
42 1 0.493501 0.760734 0.237648
46 1 0.625 0.875 0.375
49 1 0 0.5 0.5
53 1 0.125 0.625 0.625
52 1 0.253733 0.748596 0.507007
56 1 0.375 0.875 0.625
57 1 0.875 0.875 0.625
60 1 0.763385 0.743045 0.487211
51 1 0.246934 0.502799 0.748123
55 1 0.375 0.625 0.875
59 1 0.744699 0.50918 0.746886
61 1 0.875 0.625 0.875
50 1 0 0.75 0.75
54 1 0.125 0.875 0.875
58 1 0.502416 0.760643 0.759837
62 1 0.625 0.875 0.875
ITEM: TIMESTEP
1600
ITEM: NUMBER OF ATOMS
62
ITEM: BOX BOUNDS pp pp pp
0.0000000000000000e+00 1.0859999999999999e+01
0.0000000000000000e+00 1.0859999999999999e+01
0.0000000000000000e+00 1.0859999999999999e+01
ITEM: ATOMS id type xs ys zs
1 1 0 0 0
5 1 0.125 0.125 0.125
9 1 0.5 0 0
13 1 0.625 0.125 0.125
4 1 0.25 0.25 0
8 1 0.375 0.375 0.125
12 1 0.75 0.25 0
16 1 0.875 0.375 0.125
3 1 0.25 0 0.25
7 1 0.375 0.125 0.375
11 1 0.75 0 0.25
15 1 0.875 0.125 0.375
2 1 0 0.25 0.25
6 1 0.125 0.375 0.375
10 1 0.50286 0.247762 0.251909
14 1 0.626049 0.371434 0.371637
17 1 0 0 0.5
21 1 0.125 0.125 0.625
25 1 0.5 0 0.5
29 1 0.625 0.125 0.625
20 1 0.250866 0.250782 0.496653
24 1 0.385695 0.375353 0.622425
28 1 0.74642 0.25831 0.506003
32 1 0.875 0.375 0.625
19 1 0.25 0 0.75
23 1 0.375 0.125 0.875
27 1 0.75 0 0.75
31 1 0.875 0.125 0.875
18 1 0 0.25 0.75
22 1 0.125 0.375 0.875
26 1 0.502969 0.247298 0.755343
30 1 0.625 0.375 0.875
33 1 0 0.5 0
37 1 0.125 0.625 0.125
41 1 0.5 0.5 0
45 1 0.625 0.625 0.125
36 1 0.25 0.75 0
40 1 0.375 0.875 0.125
44 1 0.75 0.75 0
48 1 0.875 0.875 0.125
35 1 0.253656 0.500121 0.250306
39 1 0.361262 0.642619 0.356962
43 1 0.753528 0.501997 0.251751
47 1 0.875 0.625 0.375
34 1 0 0.75 0.25
38 1 0.125 0.875 0.375
42 1 0.499788 0.758719 0.241128
46 1 0.625 0.875 0.375
49 1 0 0.5 0.5
53 1 0.125 0.625 0.625
52 1 0.252993 0.748409 0.503099
56 1 0.375 0.875 0.625
57 1 0.875 0.875 0.625
60 1 0.76526 0.752482 0.483116
51 1 0.253616 0.497114 0.748173
55 1 0.375 0.625 0.875
59 1 0.744857 0.509744 0.745297
61 1 0.875 0.625 0.875
50 1 0 0.75 0.75
54 1 0.125 0.875 0.875
58 1 0.495161 0.761572 0.761435
62 1 0.625 0.875 0.875
ITEM: TIMESTEP
1700
ITEM: NUMBER OF ATOMS
62
ITEM: BOX BOUNDS pp pp pp
0.0000000000000000e+00 1.0859999999999999e+01
0.0000000000000000e+00 1.0859999999999999e+01
0.0000000000000000e+00 1.0859999999999999e+01
ITEM: ATOMS id type xs ys zs
1 1 0 0 0
5 1 0.125 0.125 0.125
9 1 0.5 0 0
13 1 0.625 0.125 0.125
4 1 0.25 0.25 0
8 1 0.375 0.375 0.125
12 1 0.75 0.25 0
16 1 0.875 0.375 0.125
3 1 0.25 0 0.25
7 1 0.375 0.125 0.375
11 1 0.75 0 0.25
15 1 0.875 0.125 0.375
2 1 0 0.25 0.25
6 1 0.125 0.375 0.375
10 1 0.501207 0.252456 0.259199
14 1 0.621024 0.372277 0.370771
17 1 0 0 0.5
21 1 0.125 0.125 0.625
25 1 0.5 0 0.5
29 1 0.625 0.125 0.625
20 1 0.242392 0.252987 0.498635
24 1 0.384596 0.37387 0.626185
28 1 0.748869 0.250584 0.494064
32 1 0.875 0.375 0.625
19 1 0.25 0 0.75
23 1 0.375 0.125 0.875
27 1 0.75 0 0.75
31 1 0.875 0.125 0.875
18 1 0 0.25 0.75
22 1 0.125 0.375 0.875
26 1 0.506137 0.243389 0.756825
30 1 0.625 0.375 0.875
33 1 0 0.5 0
37 1 0.125 0.625 0.125
41 1 0.5 0.5 0
45 1 0.625 0.625 0.125
36 1 0.25 0.75 0
40 1 0.375 0.875 0.125
44 1 0.75 0.75 0
48 1 0.875 0.875 0.125
35 1 0.257456 0.508041 0.246787
39 1 0.363489 0.635458 0.356749
43 1 0.754025 0.500592 0.251028
47 1 0.875 0.625 0.375
34 1 0 0.75 0.25
38 1 0.125 0.875 0.375
42 1 0.508804 0.753138 0.248213
46 1 0.625 0.875 0.375
49 1 0 0.5 0.5
53 1 0.125 0.625 0.625
52 1 0.249244 0.7504 0.49876
56 1 0.375 0.875 0.625
57 1 0.875 0.875 0.625
60 1 0.761792 0.767 0.485061
51 1 0.260281 0.492165 0.747803
55 1 0.375 0.625 0.875
59 1 0.74652 0.506872 0.744998
61 1 0.875 0.625 0.875
50 1 0 0.75 0.75
54 1 0.125 0.875 0.875
58 1 0.48612 0.759413 0.759997
62 1 0.625 0.875 0.875
ITEM: TIMESTEP
1800
ITEM: NUMBER OF ATOMS
62
ITEM: BOX BOUNDS pp pp pp
0.0000000000000000e+00 1.0859999999999999e+01
0.0000000000000000e+00 1.0859999999999999e+01
0.0000000000000000e+00 1.0859999999999999e+01
ITEM: ATOMS id type xs ys zs
1 1 0 0 0
5 1 0.125 0.125 0.125
9 1 0.5 0 0
13 1 0.625 0.125 0.125
4 1 0.25 0.25 0
8 1 0.375 0.375 0.125
12 1 0.75 0.25 0
16 1 0.875 0.375 0.125
3 1 0.25 0 0.25
7 1 0.375 0.125 0.375
11 1 0.75 0 0.25
15 1 0.875 0.125 0.375
2 1 0 0.25 0.25
6 1 0.125 0.375 0.375
10 1 0.496749 0.254356 0.259544