ITEM: TIMESTEP
0
ITEM: NUMBER OF ATOMS
62
ITEM: BOX BOUNDS pp pp pp
0.0000000000000000e+00 1.0859999999999999e+01
0.0000000000000000e+00 1.0859999999999999e+01
0.0000000000000000e+00 1.0859999999999999e+01
ITEM: ATOMS id type xs ys zs
1 1 0 0 0
5 1 0.125 0.125 0.125
9 1 0.5 0 0
13 1 0.625 0.125 0.125
4 1 0.25 0.25 0
8 1 0.375 0.375 0.125
12 1 0.75 0.25 0
16 1 0.875 0.375 0.125
3 1 0.25 0 0.25
7 1 0.375 0.125 0.375
11 1 0.75 0 0.25
15 1 0.875 0.125 0.375
2 1 0 0.25 0.25
6 1 0.125 0.375 0.375
10 1 0.5 0.25 0.25
14 1 0.625 0.375 0.375
17 1 0 0 0.5
21 1 0.125 0.125 0.625
25 1 0.5 0 0.5
29 1 0.625 0.125 0.625
20 1 0.25 0.25 0.5
24 1 0.375 0.375 0.625
28 1 0.75 0.25 0.5
32 1 0.875 0.375 0.625
19 1 0.25 0 0.75
23 1 0.375 0.125 0.875
27 1 0.75 0 0.75
31 1 0.875 0.125 0.875
18 1 0 0.25 0.75
22 1 0.125 0.375 0.875
26 1 0.5 0.25 0.75
30 1 0.625 0.375 0.875
33 1 0 0.5 0
37 1 0.125 0.625 0.125
41 1 0.5 0.5 0
45 1 0.625 0.625 0.125
36 1 0.25 0.75 0
40 1 0.375 0.875 0.125
44 1 0.75 0.75 0
48 1 0.875 0.875 0.125
35 1 0.25 0.5 0.25
39 1 0.375 0.625 0.375
43 1 0.75 0.5 0.25
47 1 0.875 0.625 0.375
34 1 0 0.75 0.25
38 1 0.125 0.875 0.375
42 1 0.5 0.75 0.25
46 1 0.625 0.875 0.375
49 1 0 0.5 0.5
53 1 0.125 0.625 0.625
52 1 0.25 0.75 0.5
56 1 0.375 0.875 0.625
57 1 0.875 0.875 0.625
60 1 0.75 0.75 0.5
51 1 0.25 0.5 0.75
55 1 0.375 0.625 0.875
59 1 0.75 0.5 0.75
61 1 0.875 0.625 0.875
50 1 0 0.75 0.75
54 1 0.125 0.875 0.875
58 1 0.5 0.75 0.75
62 1 0.625 0.875 0.875
ITEM: TIMESTEP
100
ITEM: NUMBER OF ATOMS
62
ITEM: BOX BOUNDS pp pp pp
0.0000000000000000e+00 1.0859999999999999e+01
0.0000000000000000e+00 1.0859999999999999e+01
0.0000000000000000e+00 1.0859999999999999e+01
ITEM: ATOMS id type xs ys zs
1 1 0 0 0
5 1 0.125 0.125 0.125
9 1 0.5 0 0
13 1 0.625 0.125 0.125
4 1 0.25 0.25 0
8 1 0.375857 0.375338 0.12094
12 1 0.75 0.25 0
16 1 0.875 0.375 0.125
3 1 0.25 0 0.25
7 1 0.372966 0.122449 0.38154
11 1 0.75 0 0.25
15 1 0.875 0.125 0.375
2 1 0 0.25 0.25
6 1 0.122402 0.372534 0.370775
10 1 0.493292 0.250889 0.252176
14 1 0.627515 0.381319 0.374834
17 1 0 0 0.5
21 1 0.125 0.125 0.625
25 1 0.495332 -0.000209659 0.502166
29 1 0.625093 0.126668 0.626528
20 1 0.243982 0.254415 0.503701
24 1 0.38089 0.367512 0.624109
28 1 0.75185 0.247729 0.482974
32 1 0.872074 0.36712 0.628031
19 1 0.25 0 0.75
23 1 0.375 0.125 0.875
27 1 0.75 0 0.75
31 1 0.875 0.125 0.875
18 1 0 0.25 0.75
22 1 0.125 0.375 0.875
26 1 0.506319 0.249987 0.75225
30 1 0.623372 0.376486 0.880276
33 1 0 0.5 0
37 1 0.125 0.625 0.125
41 1 0.50602 0.50342 -0.000705984
45 1 0.63497 0.618463 0.12914
36 1 0.25 0.75 0
40 1 0.375 0.875 0.125
44 1 0.75 0.75 0
48 1 0.875 0.875 0.125
35 1 0.25204 0.5032 0.245308
39 1 0.384585 0.627763 0.377128
43 1 0.747084 0.498291 0.248889
47 1 0.864735 0.626303 0.371857
34 1 0 0.75 0.25
38 1 0.125 0.875 0.375
42 1 0.504198 0.742605 0.256999
46 1 0.624625 0.876966 0.373949
49 1 -0.00679007 0.495928 0.499336
53 1 0.122671 0.626892 0.624514
52 1 0.251955 0.745991 0.494997
56 1 0.377965 0.87421 0.627831
57 1 0.875 0.875 0.625
60 1 0.750407 0.768455 0.495727
51 1 0.253899 0.500069 0.757196
55 1 0.373983 0.620076 0.879696
59 1 0.749861 0.503905 0.741964
61 1 0.875 0.625 0.875
50 1 0 0.75 0.75
54 1 0.125 0.875 0.875
58 1 0.491905 0.75143 0.751128
62 1 0.625 0.875 0.875
ITEM: TIMESTEP
200
ITEM: NUMBER OF ATOMS
62
ITEM: BOX BOUNDS pp pp pp
0.0000000000000000e+00 1.0859999999999999e+01
0.0000000000000000e+00 1.0859999999999999e+01
0.0000000000000000e+00 1.0859999999999999e+01
ITEM: ATOMS id type xs ys zs
1 1 0 0 0
5 1 0.125 0.125 0.125
9 1 0.5 0 0
13 1 0.625 0.125 0.125
4 1 0.25 0.25 0
8 1 0.376695 0.376758 0.117692
12 1 0.75 0.25 0
16 1 0.875 0.375 0.125
3 1 0.25 0 0.25
7 1 0.368756 0.122402 0.386265
11 1 0.75 0 0.25
15 1 0.875 0.125 0.375
2 1 0 0.25 0.25
6 1 0.120953 0.373471 0.368025
10 1 0.489765 0.251943 0.254896
14 1 0.626923 0.384708 0.373203
17 1 0 0 0.5
21 1 0.125 0.125 0.625
25 1 0.494178 -0.00047428 0.504881
29 1 0.62686 0.127666 0.625313
20 1 0.240356 0.256537 0.50576
24 1 0.384592 0.3631 0.625397
28 1 0.750857 0.247545 0.474375
32 1 0.868087 0.361011 0.627903
19 1 0.25 0 0.75
23 1 0.375 0.125 0.875
27 1 0.75 0 0.75
31 1 0.875 0.125 0.875
18 1 0 0.25 0.75
22 1 0.125 0.375 0.875
26 1 0.510118 0.249764 0.754966
30 1 0.625314 0.378685 0.881411
33 1 0 0.5 0
37 1 0.125 0.625 0.125
41 1 0.510327 0.505165 0.00130423
45 1 0.639291 0.616887 0.130332
36 1 0.25 0.75 0
40 1 0.375 0.875 0.125
44 1 0.75 0.75 0
48 1 0.875 0.875 0.125
35 1 0.255042 0.505201 0.243708
39 1 0.389776 0.62609 0.379332
43 1 0.748095 0.495008 0.248886
47 1 0.857534 0.628443 0.371076
34 1 0 0.75 0.25
38 1 0.125 0.875 0.375
42 1 0.510137 0.739053 0.258773
46 1 0.621572 0.881406 0.372625
49 1 -0.0129346 0.493315 0.498428
53 1 0.1218 0.62582 0.623781
52 1 0.25394 0.74431 0.49291
56 1 0.376565 0.873344 0.628334
57 1 0.875 0.875 0.625
60 1 0.752171 0.780866 0.491091
51 1 0.256477 0.498235 0.759071
55 1 0.374494 0.618862 0.883696
59 1 0.749165 0.505817 0.737263
61 1 0.875 0.625 0.875
50 1 0 0.75 0.75
54 1 0.125 0.875 0.875
58 1 0.486614 0.751772 0.755322
62 1 0.625 0.875 0.875
ITEM: TIMESTEP
300
ITEM: NUMBER OF ATOMS
62
ITEM: BOX BOUNDS pp pp pp
0.0000000000000000e+00 1.0859999999999999e+01
0.0000000000000000e+00 1.0859999999999999e+01
0.0000000000000000e+00 1.0859999999999999e+01
ITEM: ATOMS id type xs ys zs
1 1 0 0 0
5 1 0.125 0.125 0.125
9 1 0.5 0 0
13 1 0.625 0.125 0.125
4 1 0.25 0.25 0
8 1 0.377554 0.378941 0.116538
12 1 0.75 0.25 0
16 1 0.875 0.375 0.125
3 1 0.25 0 0.25
7 1 0.363347 0.125023 0.38843
11 1 0.75 0 0.25
15 1 0.875 0.125 0.375
2 1 0 0.25 0.25
6 1 0.121134 0.37838 0.367784
10 1 0.489895 0.252871 0.25738
14 1 0.621846 0.384234 0.370827
17 1 0 0 0.5
21 1 0.125 0.125 0.625
25 1 0.496097 0.000109844 0.507644
29 1 0.630023 0.127918 0.621606
20 1 0.239664 0.25661 0.505876
24 1 0.385464 0.362757 0.628648
28 1 0.7461 0.249898 0.476663
32 1 0.863056 0.357701 0.62438
19 1 0.25 0 0.75
23 1 0.375 0.125 0.875
27 1 0.75 0 0.75
31 1 0.875 0.125 0.875
18 1 0 0.25 0.75
22 1 0.125 0.375 0.875
26 1 0.511089 0.248819 0.757898
30 1 0.631241 0.381484 0.87792
33 1 0 0.5 0
37 1 0.125 0.625 0.125
41 1 0.512255 0.504691 0.00539854
45 1 0.637689 0.621104 0.128515
36 1 0.25 0.75 0
40 1 0.375 0.875 0.125
44 1 0.75 0.75 0
48 1 0.875 0.875 0.125
35 1 0.258529 0.505411 0.245742
39 1 0.390273 0.619692 0.381166
43 1 0.753141 0.491165 0.249431
47 1 0.855345 0.631527 0.372772
34 1 0 0.75 0.25
38 1 0.125 0.875 0.375
42 1 0.51603 0.740197 0.25478
46 1 0.615441 0.888193 0.370556
49 1 -0.0178827 0.49302 0.497272
53 1 0.122576 0.621316 0.622682
52 1 0.255056 0.745117 0.494511
56 1 0.370758 0.872255 0.626617
57 1 0.875 0.875 0.625
60 1 0.755022 0.785131 0.485655
51 1 0.257452 0.49468 0.754959
55 1 0.376035 0.620991 0.886527
59 1 0.748209 0.50559 0.736482
61 1 0.875 0.625 0.875
50 1 0 0.75 0.75
54 1 0.125 0.875 0.875
58 1 0.485363 0.751442 0.762172
62 1 0.625 0.875 0.875
ITEM: TIMESTEP
400
ITEM: NUMBER OF ATOMS
62
ITEM: BOX BOUNDS pp pp pp
0.0000000000000000e+00 1.0859999999999999e+01
0.0000000000000000e+00 1.0859999999999999e+01
0.0000000000000000e+00 1.0859999999999999e+01
ITEM: ATOMS id type xs ys zs
1 1 0 0 0
5 1 0.125 0.125 0.125
9 1 0.5 0 0
13 1 0.625 0.125 0.125
4 1 0.25 0.25 0
8 1 0.378336 0.380228 0.118658
12 1 0.75 0.25 0
16 1 0.875 0.375 0.125
3 1 0.25 0 0.25
7 1 0.360124 0.128363 0.387873
11 1 0.75 0 0.25
15 1 0.875 0.125 0.375
2 1 0 0.25 0.25
6 1 0.122397 0.384974 0.370211
10 1 0.49191 0.252947 0.257984
14 1 0.614277 0.381075 0.368579
17 1 0 0 0.5
21 1 0.125 0.125 0.625
25 1 0.497199 0.00265114 0.509563
29 1 0.632422 0.127828 0.618242
20 1 0.241295 0.256602 0.504964
24 1 0.383605 0.365285 0.632552
28 1 0.739499 0.252385 0.486138
32 1 0.858775 0.358313 0.619886
19 1 0.25 0 0.75
23 1 0.375 0.125 0.875
27 1 0.75 0 0.75
31 1 0.875 0.125 0.875
18 1 0 0.25 0.75
22 1 0.125 0.375 0.875
26 1 0.510927 0.247126 0.759654
30 1 0.637956 0.384344 0.872548
33 1 0 0.5 0
37 1 0.125 0.625 0.125
41 1 0.512299 0.502468 0.00798141
45 1 0.635052 0.626916 0.126347
36 1 0.25 0.75 0
40 1 0.375 0.875 0.125
44 1 0.75 0.75 0
48 1 0.875 0.875 0.125
35 1 0.260971 0.504111 0.249907
39 1 0.388685 0.613028 0.381217
43 1 0.757317 0.490198 0.250037
47 1 0.858706 0.634361 0.374741
34 1 0 0.75 0.25
38 1 0.125 0.875 0.375
42 1 0.516455 0.744237 0.24924
46 1 0.609317 0.89443 0.368072
49 1 -0.021183 0.495268 0.496244
53 1 0.124157 0.615076 0.621456
52 1 0.254318 0.745924 0.498066
56 1 0.365316 0.870815 0.625165
57 1 0.875 0.875 0.625
60 1 0.756968 0.783897 0.479009
51 1 0.25745 0.491621 0.748048
55 1 0.377038 0.622679 0.887638
59 1 0.748118 0.504074 0.738613
61 1 0.875 0.625 0.875
50 1 0 0.75 0.75
54 1 0.125 0.875 0.875
58 1 0.487007 0.752655 0.768064
62 1 0.625 0.875 0.875
ITEM: TIMESTEP
500
ITEM: NUMBER OF ATOMS
62
ITEM: BOX BOUNDS pp pp pp
0.0000000000000000e+00 1.0859999999999999e+01
0.0000000000000000e+00 1.0859999999999999e+01
0.0000000000000000e+00 1.0859999999999999e+01
ITEM: ATOMS id type xs ys zs
1 1 0 0 0
5 1 0.125 0.125 0.125
9 1 0.5 0 0
13 1 0.625 0.125 0.125
4 1 0.25 0.25 0
8 1 0.378671 0.378904 0.12383
12 1 0.75 0.25 0
16 1 0.875 0.375 0.125
3 1 0.25 0 0.25
7 1 0.361577 0.130428 0.384358
11 1 0.75 0 0.25
15 1 0.875 0.125 0.375
2 1 0 0.25 0.25
6 1 0.123512 0.389946 0.374709
10 1 0.493262 0.250583 0.254914
14 1 0.608433 0.37798 0.367929
17 1 0 0 0.5
21 1 0.125 0.125 0.625
25 1 0.494402 0.00689862 0.510068
29 1 0.631297 0.126589 0.619154
20 1 0.243927 0.258133 0.50439
24 1 0.380666 0.367925 0.635074
28 1 0.733645 0.25301 0.49528
32 1 0.85823 0.364072 0.617608
19 1 0.25 0 0.75
23 1 0.375 0.125 0.875
27 1 0.75 0 0.75
31 1 0.875 0.125 0.875
18 1 0 0.25 0.75
22 1 0.125 0.375 0.875
26 1 0.511259 0.245707 0.758921
30 1 0.640852 0.384984 0.869377
33 1 0 0.5 0
37 1 0.125 0.625 0.125
41 1 0.511793 0.500024 0.00671062
45 1 0.634291 0.630119 0.12542
36 1 0.25 0.75 0
40 1 0.375 0.875 0.125
44 1 0.75 0.75 0
48 1 0.875 0.875 0.125
35 1 0.260604 0.502092 0.253508
39 1 0.38721 0.61057 0.380056
43 1 0.756532 0.493678 0.251653
47 1 0.867054 0.634962 0.374107
34 1 0 0.75 0.25
38 1 0.125 0.875 0.375
42 1 0.50863 0.749629 0.245723
46 1 0.605794 0.89761 0.365533
49 1 -0.0222265 0.499408 0.496099
53 1 0.125195 0.60972 0.620254
52 1 0.251152 0.743992 0.500616
56 1 0.364871 0.870121 0.626252
57 1 0.875 0.875 0.625
60 1 0.756219 0.781236 0.472636
51 1 0.256032 0.49123 0.743232
55 1 0.376617 0.621103 0.886623
59 1 0.750393 0.503318 0.741344
61 1 0.875 0.625 0.875
50 1 0 0.75 0.75
54 1 0.125 0.875 0.875
58 1 0.48946 0.756029 0.769804
62 1 0.625 0.875 0.875
ITEM: TIMESTEP
600
ITEM: NUMBER OF ATOMS
62
ITEM: BOX BOUNDS pp pp pp
0.0000000000000000e+00 1.0859999999999999e+01
0.0000000000000000e+00 1.0859999999999999e+01
0.0000000000000000e+00 1.0859999999999999e+01
ITEM: ATOMS id type xs ys zs
1 1 0 0 0
5 1 0.125 0.125 0.125
9 1 0.5 0 0
13 1 0.625 0.125 0.125
4 1 0.25 0.25 0
8 1 0.378313 0.375098 0.129524
12 1 0.75 0.25 0
16 1 0.875 0.375 0.125
3 1 0.25 0 0.25
7 1 0.367055 0.130932 0.378527
11 1 0.75 0 0.25
15 1 0.875 0.125 0.375
2 1 0 0.25 0.25
6 1 0.123379 0.390842 0.380146
10 1 0.493396 0.245293 0.248448
14 1 0.606868 0.376597 0.369889
17 1 0 0 0.5
21 1 0.125 0.125 0.625
25 1 0.487872 0.0108172 0.508643
29 1 0.625532 0.123305 0.625784
20 1 0.246611 0.260673 0.504457
24 1 0.378799 0.368527 0.634821
28 1 0.730897 0.252474 0.49954
32 1 0.862459 0.37366 0.618379
19 1 0.25 0 0.75
23 1 0.375 0.125 0.875
27 1 0.75 0 0.75
31 1 0.875 0.125 0.875
18 1 0 0.25 0.75
22 1 0.125 0.375 0.875
26 1 0.511714 0.24573 0.755824
30 1 0.637924 0.381739 0.87031
33 1 0 0.5 0
37 1 0.125 0.625 0.125
41 1 0.511218 0.498241 0.00278694
45 1 0.633544 0.629901 0.126449
36 1 0.25 0.75 0
40 1 0.375 0.875 0.125
44 1 0.75 0.75 0
48 1 0.875 0.875 0.125
35 1 0.256918 0.500485 0.254731
39 1 0.386251 0.614214 0.378688
43 1 0.750881 0.500241 0.253885
47 1 0.876885 0.633194 0.370413
34 1 0 0.75 0.25
38 1 0.125 0.875 0.375
42 1 0.495351 0.754079 0.245149
46 1 0.604677 0.897209 0.363844
49 1 -0.0198322 0.503807 0.497413
53 1 0.124387 0.607791 0.619298
52 1 0.247057 0.739582 0.501002
56 1 0.369533 0.870514 0.629411
57 1 0.875 0.875 0.625
60 1 0.753513 0.778924 0.468141
51 1 0.252764 0.493757 0.744117
55 1 0.375072 0.616998 0.882925
59 1 0.755007 0.504743 0.743522
61 1 0.875 0.625 0.875
50 1 0 0.75 0.75
54 1 0.125 0.875 0.875
58 1 0.490572 0.759477 0.766934
62 1 0.625 0.875 0.875
ITEM: TIMESTEP
700
ITEM: NUMBER OF ATOMS
62
ITEM: BOX BOUNDS pp pp pp
0.0000000000000000e+00 1.0859999999999999e+01
0.0000000000000000e+00 1.0859999999999999e+01
0.0000000000000000e+00 1.0859999999999999e+01
ITEM: ATOMS id type xs ys zs
1 1 0 0 0
5 1 0.125 0.125 0.125
9 1 0.5 0 0
13 1 0.625 0.125 0.125
4 1 0.25 0.25 0
8 1 0.376881 0.371125 0.131941
12 1 0.75 0.25 0
16 1 0.875 0.375 0.125
3 1 0.25 0 0.25
7 1 0.372391 0.130753 0.372052
11 1 0.75 0 0.25
15 1 0.875 0.125 0.375
2 1 0 0.25 0.25
6 1 0.121869 0.387061 0.384724
10 1 0.4947 0.2397 0.242266
14 1 0.60869 0.376017 0.372984
17 1 0 0 0.5
21 1 0.125 0.125 0.625
25 1 0.481495 0.011777 0.50624
29 1 0.617775 0.119421 0.633922
20 1 0.249148 0.261577 0.504206
24 1 0.378235 0.36823 0.632848
28 1 0.732445 0.251616 0.500496
32 1 0.869421 0.382358 0.620873
19 1 0.25 0 0.75
23 1 0.375 0.125 0.875
27 1 0.75 0 0.75
31 1 0.875 0.125 0.875
18 1 0 0.25 0.75
22 1 0.125 0.375 0.875
26 1 0.509751 0.247795 0.75253
30 1 0.631783 0.376152 0.873198
33 1 0 0.5 0
37 1 0.125 0.625 0.125
41 1 0.509507 0.496847 -0.00068587
45 1 0.629246 0.628274 0.128543
36 1 0.25 0.75 0
40 1 0.375 0.875 0.125
44 1 0.75 0.75 0
48 1 0.875 0.875 0.125
35 1 0.251256 0.50028 0.25422
39 1 0.384021 0.622387 0.377095
43 1 0.743927 0.506635 0.255432
47 1 0.881972 0.630277 0.366291
34 1 0 0.75 0.25
38 1 0.125 0.875 0.375
42 1 0.483844 0.755236 0.247458
46 1 0.603806 0.894026 0.363957
49 1 -0.0132074 0.50688 0.499668
53 1 0.121606 0.61101 0.619939
52 1 0.244901 0.73564 0.500012
56 1 0.374528 0.871512 0.63132
57 1 0.875 0.875 0.625
60 1 0.751868 0.776292 0.466152
51 1 0.248914 0.496685 0.749754
55 1 0.373217 0.613582 0.876985
59 1 0.758784 0.507067 0.74671
61 1 0.875 0.625 0.875
50 1 0 0.75 0.75
54 1 0.125 0.875 0.875
58 1 0.490217 0.76012 0.76159
62 1 0.625 0.875 0.875
ITEM: TIMESTEP
800
ITEM: NUMBER OF ATOMS
62
ITEM: BOX BOUNDS pp pp pp
0.0000000000000000e+00 1.0859999999999999e+01
0.0000000000000000e+00 1.0859999999999999e+01
0.0000000000000000e+00 1.0859999999999999e+01
ITEM: ATOMS id type xs ys zs
1 1 0 0 0
5 1 0.125 0.125 0.125
9 1 0.5 0 0
13 1 0.625 0.125 0.125
4 1 0.25 0.25 0
8 1 0.374279 0.369409 0.12936
12 1 0.75 0.25 0
16 1 0.875 0.375 0.125
3 1 0.25 0 0.25
7 1 0.373557 0.130217 0.366717
11 1 0.75 0 0.25
15 1 0.875 0.125 0.375
2 1 0 0.25 0.25
6 1 0.119841 0.379933 0.386194
10 1 0.49849 0.238026 0.240069
14 1 0.612104 0.374877 0.375178
17 1 0 0 0.5
21 1 0.125 0.125 0.625
25 1 0.479613 0.00885201 0.50438
29 1 0.611896 0.116594 0.637557
20 1 0.251493 0.258414 0.502877
24 1 0.377588 0.370004 0.631064
28 1 0.737639 0.250362 0.501445
32 1 0.876271 0.386374 0.624057
19 1 0.25 0 0.75
23 1 0.375 0.125 0.875
27 1 0.75 0 0.75
31 1 0.875 0.125 0.875
18 1 0 0.25 0.75
22 1 0.125 0.375 0.875
26 1 0.503195 0.251474 0.751784
30 1 0.626728 0.371205 0.875231
33 1 0 0.5 0
37 1 0.125 0.625 0.125
41 1 0.505033 0.495472 -0.00171115
45 1 0.620222 0.627909 0.129492
36 1 0.25 0.75 0
40 1 0.375 0.875 0.125
44 1 0.75 0.75 0
48 1 0.875 0.875 0.125
35 1 0.245893 0.501064 0.253845
39 1 0.37812 0.63009 0.37569
43 1 0.738666 0.509495 0.255973
47 1 0.880097 0.626575 0.364961
34 1 0 0.75 0.25
38 1 0.125 0.875 0.375
42 1 0.480333 0.753395 0.251136
46 1 0.601905 0.88929 0.365802
49 1 -0.00396594 0.5078 0.50101
53 1 0.118832 0.619474 0.624334
52 1 0.24555 0.735672 0.498856
56 1 0.374609 0.872883 0.62923
57 1 0.875 0.875 0.625
60 1 0.75314 0.77266 0.466912
51 1 0.245461 0.497352 0.754917
55 1 0.372445 0.614124 0.871548
59 1 0.758319 0.507651 0.751683
61 1 0.875 0.625 0.875
50 1 0 0.75 0.75
54 1 0.125 0.875 0.875
58 1 0.49055 0.756523 0.75667
62 1 0.625 0.875 0.875
ITEM: TIMESTEP
900
ITEM: NUMBER OF ATOMS
62
ITEM: BOX BOUNDS pp pp pp
0.0000000000000000e+00 1.0859999999999999e+01
0.0000000000000000e+00 1.0859999999999999e+01
0.0000000000000000e+00 1.0859999999999999e+01
ITEM: ATOMS id type xs ys zs
1 1 0 0 0
5 1 0.125 0.125 0.125
9 1 0.5 0 0
13 1 0.625 0.125 0.125
4 1 0.25 0.25 0
8 1 0.371418 0.37058 0.12397
12 1 0.75 0.25 0
16 1 0.875 0.375 0.125
3 1 0.25 0 0.25
7 1 0.370952 0.128932 0.364273
11 1 0.75 0 0.25
15 1 0.875 0.125 0.375
2 1 0 0.25 0.25
6 1 0.118834 0.371739 0.383407
10 1 0.502784 0.243162 0.242797
14 1 0.616519 0.372523 0.375975
17 1 0 0 0.5
21 1 0.125 0.125 0.625
25 1 0.482819 0.00355562 0.502648
29 1 0.609229 0.116227 0.635249
20 1 0.253533 0.251311 0.500716
24 1 0.37518 0.375178 0.629646
28 1 0.745025 0.248987 0.503891
32 1 0.880861 0.38536 0.627612
19 1 0.25 0 0.75
23 1 0.375 0.125 0.875
27 1 0.75 0 0.75
31 1 0.875 0.125 0.875
18 1 0 0.25 0.75
22 1 0.125 0.375 0.875
26 1 0.49376 0.254441 0.753687
30 1 0.624376 0.369482 0.875921
33 1 0 0.5 0
37 1 0.125 0.625 0.125
41 1 0.497432 0.494337 -0.000650343
45 1 0.609189 0.629325 0.128354
36 1 0.25 0.75 0
40 1 0.375 0.875 0.125
44 1 0.75 0.75 0
48 1 0.875 0.875 0.125
35 1 0.242697 0.501129 0.254331
39 1 0.367962 0.632167 0.374871
43 1 0.735612 0.507244 0.254898
47 1 0.874375 0.622802 0.367463
34 1 0 0.75 0.25
38 1 0.125 0.875 0.375
42 1 0.485738 0.751132 0.253024
46 1 0.600791 0.884102 0.368851
49 1 0.00445759 0.506833 0.500753
53 1 0.118737 0.630033 0.631767
52 1 0.246986 0.74228 0.499459
56 1 0.36903 0.873398 0.624115
57 1 0.875 0.875 0.625
60 1 0.756873 0.768622 0.470518
51 1 0.242867 0.496553 0.755028
55 1 0.373264 0.618942 0.869668
59 1 0.753229 0.504509 0.756899
61 1 0.875 0.625 0.875
50 1 0 0.75 0.75
54 1 0.125 0.875 0.875
58 1 0.492811 0.750436 0.752516
62 1 0.625 0.875 0.875
ITEM: TIMESTEP
1000
ITEM: NUMBER OF ATOMS
62
ITEM: BOX BOUNDS pp pp pp
0.0000000000000000e+00 1.0859999999999999e+01
0.0000000000000000e+00 1.0859999999999999e+01
0.0000000000000000e+00 1.0859999999999999e+01
ITEM: ATOMS id type xs ys zs
1 1 0 0 0
5 1 0.125 0.125 0.125
9 1 0.5 0 0
13 1 0.625 0.125 0.125
4 1 0.25 0.25 0
8 1 0.369023 0.373709 0.1204
12 1 0.75 0.25 0
16 1 0.875 0.375 0.125
3 1 0.25 0 0.25
7 1 0.368887 0.126959 0.365535
11 1 0.75 0 0.25
15 1 0.875 0.125 0.375
2 1 0 0.25 0.25
6 1 0.12071 0.364715 0.37797
10 1 0.504595 0.253072 0.248271
14 1 0.62236 0.369229 0.376668
17 1 0 0 0.5
21 1 0.125 0.125 0.625
25 1 0.488024 -0.00170717 0.500224
29 1 0.609706 0.119639 0.629525
20 1 0.254508 0.243527 0.498866
24 1 0.37033 0.381804 0.62746
28 1 0.752733 0.247959 0.507566
32 1 0.882152 0.381289 0.630855
19 1 0.25 0 0.75
23 1 0.375 0.125 0.875
27 1 0.75 0 0.75
31 1 0.875 0.125 0.875
18 1 0 0.25 0.75
22 1 0.125 0.375 0.875
26 1 0.485906 0.255279 0.755735
30 1 0.623112 0.371547 0.876549
33 1 0 0.5 0
37 1 0.125 0.625 0.125
41 1 0.48873 0.494434 0.000319978
45 1 0.601654 0.63009 0.12511
36 1 0.25 0.75 0
40 1 0.375 0.875 0.125
44 1 0.75 0.75 0
48 1 0.875 0.875 0.125
35 1 0.241678 0.499035 0.254624
39 1 0.356826 0.628977 0.373489
43 1 0.734356 0.501145 0.251071
47 1 0.869262 0.619545 0.372018
34 1 0 0.75 0.25
38 1 0.125 0.875 0.375
42 1 0.493313 0.74941 0.253001
46 1 0.604612 0.879005 0.372482
49 1 0.00934086 0.505399 0.500342
53 1 0.123256 0.63698 0.637061
52 1 0.245989 0.754177 0.502396
56 1 0.362466 0.872449 0.619591
57 1 0.875 0.875 0.625
60 1 0.760915 0.765719 0.477
51 1 0.242297 0.497639 0.750616
55 1 0.373693 0.625034 0.871675
59 1 0.746168 0.498031 0.760444
61 1 0.875 0.625 0.875
50 1 0 0.75 0.75
54 1 0.125 0.875 0.875
58 1 0.496478 0.745458 0.747596
62 1 0.625 0.875 0.875
ITEM: TIMESTEP
1100
ITEM: NUMBER OF ATOMS
62
ITEM: BOX BOUNDS pp pp pp
0.0000000000000000e+00 1.0859999999999999e+01
0.0000000000000000e+00 1.0859999999999999e+01
0.0000000000000000e+00 1.0859999999999999e+01
ITEM: ATOMS id type xs ys zs
1 1 0 0 0
5 1 0.125 0.125 0.125
9 1 0.5 0 0
13 1 0.625 0.125 0.125
4 1 0.25 0.25 0
8 1 0.366831 0.377216 0.122219
12 1 0.75 0.25 0
16 1 0.875 0.375 0.125
3 1 0.25 0 0.25
7 1 0.371479 0.124587 0.369503
11 1 0.75 0 0.25
15 1 0.875 0.125 0.375
2 1 0 0.25 0.25
6 1 0.125638 0.360926 0.373253
10 1 0.502244 0.261468 0.252452
14 1 0.630084 0.366587 0.379336
17 1 0 0 0.5
21 1 0.125 0.125 0.625
25 1 0.491832 -0.00507774 0.497415
29 1 0.612984 0.126053 0.623725
20 1 0.253308 0.239058 0.498705
24 1 0.364643 0.386139 0.623479
28 1 0.758837 0.247255 0.511008
32 1 0.880312 0.376922 0.632857
19 1 0.25 0 0.75
23 1 0.375 0.125 0.875
27 1 0.75 0 0.75
31 1 0.875 0.125 0.875
18 1 0 0.25 0.75
22 1 0.125 0.375 0.875
26 1 0.482907 0.255696 0.754936
30 1 0.6199 0.374587 0.878918
33 1 0 0.5 0
37 1 0.125 0.625 0.125
41 1 0.482421 0.496778 -0.0010908
45 1 0.601692 0.627807 0.119673
36 1 0.25 0.75 0
40 1 0.375 0.875 0.125
44 1 0.75 0.75 0
48 1 0.875 0.875 0.125
35 1 0.241003 0.494382 0.252735
39 1 0.348977 0.626065 0.372263
43 1 0.735197 0.494252 0.245054
47 1 0.867177 0.616479 0.375645
34 1 0 0.75 0.25
38 1 0.125 0.875 0.375
42 1 0.495355 0.74804 0.25351
46 1 0.61554 0.874015 0.375641
49 1 0.0108498 0.503658 0.501026
53 1 0.130891 0.638443 0.635836
52 1 0.240712 0.763595 0.504073
56 1 0.362157 0.872981 0.61976
57 1 0.875 0.875 0.625
60 1 0.763065 0.76428 0.485789
51 1 0.243945 0.501971 0.746481
55 1 0.372006 0.629617 0.87478
59 1 0.741341 0.491527 0.760825
61 1 0.875 0.625 0.875
50 1 0 0.75 0.75
54 1 0.125 0.875 0.875
58 1 0.500334 0.7437 0.742065
62 1 0.625 0.875 0.875
ITEM: TIMESTEP
1200
ITEM: NUMBER OF ATOMS
62
ITEM: BOX BOUNDS pp pp pp
0.0000000000000000e+00 1.0859999999999999e+01
0.0000000000000000e+00 1.0859999999999999e+01
0.0000000000000000e+00 1.0859999999999999e+01
ITEM: ATOMS id type xs ys zs
1 1 0 0 0
5 1 0.125 0.125 0.125
9 1 0.5 0 0
13 1 0.625 0.125 0.125
4 1 0.25 0.25 0
8 1 0.365275 0.379473 0.127962
12 1 0.75 0.25 0
16 1 0.875 0.375 0.125
3 1 0.25 0 0.25
7 1 0.378274 0.122087 0.37417
11 1 0.75 0 0.25
15 1 0.875 0.125 0.375
2 1 0 0.25 0.25
6 1 0.131074 0.361229 0.371857
10 1 0.497163 0.264555 0.254025
14 1 0.638636 0.365564 0.384038
17 1 0 0 0.5
21 1 0.125 0.125 0.625
25 1 0.495296 -0.00599725 0.495257
29 1 0.617531 0.132575 0.620245
20 1 0.25053 0.239367 0.500136
24 1 0.360541 0.386005 0.617834
28 1 0.762297 0.246474 0.51227
32 1 0.876986 0.374442 0.633344
19 1 0.25 0 0.75
23 1 0.375 0.125 0.875
27 1 0.75 0 0.75
31 1 0.875 0.125 0.875
18 1 0 0.25 0.75
22 1 0.125 0.375 0.875
26 1 0.485241 0.257272 0.750115
30 1 0.61343 0.375582 0.882949
33 1 0 0.5 0
37 1 0.125 0.625 0.125
41 1 0.480245 0.500907 -0.00438
45 1 0.60856 0.623233 0.114295
36 1 0.25 0.75 0
40 1 0.375 0.875 0.125
44 1 0.75 0.75 0
48 1 0.875 0.875 0.125
35 1 0.239754 0.489246 0.248336
39 1 0.345427 0.627018 0.372378
43 1 0.738145 0.489456 0.238943
47 1 0.868283 0.61382 0.376891
34 1 0 0.75 0.25
38 1 0.125 0.875 0.375
42 1 0.492357 0.746338 0.254991
46 1 0.629842 0.86985 0.377058
49 1 0.0101904 0.500684 0.502822
53 1 0.135621 0.636389 0.628537
52 1 0.235281 0.765221 0.503058
56 1 0.369695 0.876224 0.624616
57 1 0.875 0.875 0.625
60 1 0.762669 0.761457 0.495259
51 1 0.247288 0.50784 0.746731
55 1 0.369259 0.632006 0.875115
59 1 0.741348 0.488269 0.758068
61 1 0.875 0.625 0.875
50 1 0 0.75 0.75
54 1 0.125 0.875 0.875
58 1 0.503082 0.74516 0.73786
62 1 0.625 0.875 0.875
ITEM: TIMESTEP
1300
ITEM: NUMBER OF ATOMS
62
ITEM: BOX BOUNDS pp pp pp
0.0000000000000000e+00 1.0859999999999999e+01
0.0000000000000000e+00 1.0859999999999999e+01
0.0000000000000000e+00 1.0859999999999999e+01
ITEM: ATOMS id type xs ys zs
1 1 0 0 0
5 1 0.125 0.125 0.125
9 1 0.5 0 0
13 1 0.625 0.125 0.125
4 1 0.25 0.25 0
8 1 0.36621 0.379274 0.131841
12 1 0.75 0.25 0
16 1 0.875 0.375 0.125
3 1 0.25 0 0.25
7 1 0.384399 0.120722 0.377414
11 1 0.75 0 0.25
15 1 0.875 0.125 0.375
2 1 0 0.25 0.25
6 1 0.132794 0.364624 0.374117
10 1 0.493816 0.262468 0.255207
14 1 0.645181 0.366238 0.387738
17 1 0 0 0.5
21 1 0.125 0.125 0.625
25 1 0.502027 -0.00555582 0.495014
29 1 0.621566 0.135987 0.620029
20 1 0.248695 0.242479 0.501231
24 1 0.359273 0.382654 0.612874
28 1 0.76359 0.245407 0.510378
32 1 0.874757 0.374312 0.632584
19 1 0.25 0 0.75
23 1 0.375 0.125 0.875
27 1 0.75 0 0.75
31 1 0.875 0.125 0.875
18 1 0 0.25 0.75
22 1 0.125 0.375 0.875
26 1 0.490792 0.259407 0.742586
30 1 0.606345 0.374566 0.88542
33 1 0 0.5 0
37 1 0.125 0.625 0.125
41 1 0.481089 0.504997 -0.00625633
45 1 0.618354 0.618622 0.112237
36 1 0.25 0.75 0
40 1 0.375 0.875 0.125
44 1 0.75 0.75 0
48 1 0.875 0.875 0.125
35 1 0.238267 0.488292 0.244506
39 1 0.344861 0.630617 0.372725
43 1 0.742206 0.488232 0.235472
47 1 0.871661 0.612396 0.376223
34 1 0 0.75 0.25
38 1 0.125 0.875 0.375
42 1 0.489393 0.74396 0.256267
46 1 0.64117 0.867721 0.376149
49 1 0.00814972 0.496056 0.504677
53 1 0.132415 0.631501 0.619788
52 1 0.237245 0.761921 0.502025
56 1 0.379867 0.879438 0.629115
57 1 0.875 0.875 0.625
60 1 0.760342 0.753522 0.503732
51 1 0.251022 0.512129 0.75039
55 1 0.368154 0.633258 0.870974
59 1 0.744817 0.488587 0.755042
61 1 0.875 0.625 0.875
50 1 0 0.75 0.75
54 1 0.125 0.875 0.875
58 1 0.50445 0.748636 0.737261
62 1 0.625 0.875 0.875
ITEM: TIMESTEP
1400
ITEM: NUMBER OF ATOMS
62
ITEM: BOX BOUNDS pp pp pp
0.0000000000000000e+00 1.0859999999999999e+01
0.0000000000000000e+00 1.0859999999999999e+01
0.0000000000000000e+00 1.0859999999999999e+01
ITEM: ATOMS id type xs ys zs
1 1 0 0 0
5 1 0.125 0.125 0.125
9 1 0.5 0 0
13 1 0.625 0.125 0.125
4 1 0.25 0.25 0
8 1 0.369832 0.376933 0.13032
12 1 0.75 0.25 0
16 1 0.875 0.375 0.125
3 1 0.25 0 0.25
7 1 0.385819 0.120981 0.378413
11 1 0.75 0 0.25
15 1 0.875 0.125 0.375
2 1 0 0.25 0.25
6 1 0.128642 0.369576 0.37839
10 1 0.495968 0.256818 0.257433
14 1 0.647221 0.369067 0.387311
17 1 0 0 0.5
21 1 0.125 0.125 0.625
25 1 0.513119 -0.00464583 0.496947
29 1 0.625209 0.134398 0.622323
20 1 0.248995 0.244947 0.500171
24 1 0.361304 0.37951 0.611511
28 1 0.763635 0.244381 0.50659
32 1 0.875319 0.374976 0.630695
19 1 0.25 0 0.75
23 1 0.375 0.125 0.875
27 1 0.75 0 0.75
31 1 0.875 0.125 0.875
18 1 0 0.25 0.75
22 1 0.125 0.375 0.875
26 1 0.495982 0.260684 0.734759
30 1 0.602683 0.372749 0.884028
33 1 0 0.5 0
37 1 0.125 0.625 0.125
41 1 0.483322 0.507927 -0.00462193
45 1 0.627124 0.61583 0.114544
36 1 0.25 0.75 0
40 1 0.375 0.875 0.125
44 1 0.75 0.75 0
48 1 0.875 0.875 0.125
35 1 0.23745 0.493145 0.244298
39 1 0.346587 0.633553 0.371543
43 1 0.746698 0.49047 0.237257
47 1 0.876185 0.61262 0.374534
34 1 0 0.75 0.25
38 1 0.125 0.875 0.375
42 1 0.490058 0.742047 0.255991
46 1 0.645504 0.866338 0.374304
49 1 0.00458668 0.490504 0.504633
53 1 0.123042 0.624521 0.614706
52 1 0.24681 0.758004 0.502609
56 1 0.387919 0.881508 0.629678
57 1 0.875 0.875 0.625
60 1 0.757111 0.740736 0.509918
51 1 0.251802 0.511834 0.752542
55 1 0.370997 0.635528 0.864903
59 1 0.748725 0.491344 0.754669
61 1 0.875 0.625 0.875
50 1 0 0.75 0.75
54 1 0.125 0.875 0.875
58 1 0.505575 0.752302 0.741679
62 1 0.625 0.875 0.875
ITEM: TIMESTEP
1500
ITEM: NUMBER OF ATOMS
62
ITEM: BOX BOUNDS pp pp pp
0.0000000000000000e+00 1.0859999999999999e+01
0.0000000000000000e+00 1.0859999999999999e+01
0.0000000000000000e+00 1.0859999999999999e+01
ITEM: ATOMS id type xs ys zs
1 1 0 0 0
5 1 0.125 0.125 0.125
9 1 0.5 0 0
13 1 0.625 0.125 0.125
4 1 0.25 0.25 0
8 1 0.374013 0.374305 0.125811
12 1 0.75 0.25 0
16 1 0.875 0.375 0.125
3 1 0.25 0 0.25
7 1 0.383036 0.121266 0.378376
11 1 0.75 0 0.25
15 1 0.875 0.125 0.375
2 1 0 0.25 0.25
6 1 0.121138 0.373899 0.381397
10 1 0.503636 0.250267 0.259295
14 1 0.644013 0.373349 0.38238
17 1 0 0 0.5
21 1 0.125 0.125 0.625
25 1 0.525028 -0.00298962 0.499495
29 1 0.630446 0.128608 0.625143
20 1 0.250288 0.245452 0.497132
24 1 0.366095 0.378775 0.614195
28 1 0.762108 0.244549 0.503148
32 1 0.87753 0.374335 0.62845
19 1 0.25 0 0.75
23 1 0.375 0.125 0.875
27 1 0.75 0 0.75
31 1 0.875 0.125 0.875
18 1 0 0.25 0.75
22 1 0.125 0.375 0.875
26 1 0.498461 0.259871 0.729482
30 1 0.604452 0.371494 0.879498
33 1 0 0.5 0
37 1 0.125 0.625 0.125
41 1 0.486651 0.509427 -0.000480997
45 1 0.632086 0.616288 0.120176
36 1 0.25 0.75 0
40 1 0.375 0.875 0.125
44 1 0.75 0.75 0
48 1 0.875 0.875 0.125
35 1 0.239025 0.499975 0.247855
39 1 0.35153 0.633468 0.367826
43 1 0.752406 0.494906 0.244649
47 1 0.880369 0.614344 0.372671
34 1 0 0.75 0.25
38 1 0.125 0.875 0.375
42 1 0.495354 0.741819 0.253084
46 1 0.643102 0.86301 0.373854
49 1 -0.00140017 0.486321 0.501603
53 1 0.114436 0.61914 0.615324
52 1 0.256914 0.755548 0.505638
56 1 0.392162 0.882515 0.626358
57 1 0.875 0.875 0.625
60 1 0.754109 0.726765 0.513203
51 1 0.248154 0.506361 0.749967
55 1 0.376537 0.638636 0.861138
59 1 0.751412 0.494882 0.757095
61 1 0.875 0.625 0.875
50 1 0 0.75 0.75
54 1 0.125 0.875 0.875
58 1 0.507442 0.755281 0.749469
62 1 0.625 0.875 0.875
ITEM: TIMESTEP
1600
ITEM: NUMBER OF ATOMS
62
ITEM: BOX BOUNDS pp pp pp
0.0000000000000000e+00 1.0859999999999999e+01
0.0000000000000000e+00 1.0859999999999999e+01
0.0000000000000000e+00 1.0859999999999999e+01
ITEM: ATOMS id type xs ys zs
1 1 0 0 0
5 1 0.125 0.125 0.125
9 1 0.5 0 0
13 1 0.625 0.125 0.125
4 1 0.25 0.25 0
8 1 0.377329 0.37239 0.122918
12 1 0.75 0.25 0
16 1 0.875 0.375 0.125
3 1 0.25 0 0.25
7 1 0.379413 0.120187 0.378311
11 1 0.75 0 0.25
15 1 0.875 0.125 0.375
2 1 0 0.25 0.25
6 1 0.115839 0.374967 0.379809
10 1 0.512905 0.245392 0.258976
14 1 0.636866 0.376717 0.375336
17 1 0 0 0.5
21 1 0.125 0.125 0.625
25 1 0.532568 -0.00122595 0.500207
29 1 0.637813 0.122721 0.627163
20 1 0.251092 0.245903 0.494563
24 1 0.371226 0.379908 0.618153
28 1 0.758201 0.247081 0.500942
32 1 0.877995 0.371688 0.627494
19 1 0.25 0 0.75
23 1 0.375 0.125 0.875
27 1 0.75 0 0.75
31 1 0.875 0.125 0.875
18 1 0 0.25 0.75
22 1 0.125 0.375 0.875
26 1 0.49899 0.25554 0.729215
30 1 0.611033 0.372243 0.873999
33 1 0 0.5 0
37 1 0.125 0.625 0.125
41 1 0.491865 0.509535 0.00340537
45 1 0.632739 0.620149 0.127533
36 1 0.25 0.75 0
40 1 0.375 0.875 0.125
44 1 0.75 0.75 0
48 1 0.875 0.875 0.125
35 1 0.242726 0.50399 0.252736
39 1 0.360732 0.631803 0.363278
43 1 0.759265 0.499899 0.254472
47 1 0.882886 0.617375 0.371663
34 1 0 0.75 0.25
38 1 0.125 0.875 0.375
42 1 0.503971 0.743425 0.247739
46 1 0.637269 0.857111 0.375459