ITEM: TIMESTEP
0
ITEM: NUMBER OF ATOMS
62
ITEM: BOX BOUNDS pp pp pp
0.0000000000000000e+00 1.0859999999999999e+01
0.0000000000000000e+00 1.0859999999999999e+01
0.0000000000000000e+00 1.0859999999999999e+01
ITEM: ATOMS id type xs ys zs
1 1 0 0 0
5 1 0.125 0.125 0.125
9 1 0.5 0 0
13 1 0.625 0.125 0.125
4 1 0.25 0.25 0
8 1 0.375 0.375 0.125
12 1 0.75 0.25 0
16 1 0.875 0.375 0.125
3 1 0.25 0 0.25
7 1 0.375 0.125 0.375
11 1 0.75 0 0.25
15 1 0.875 0.125 0.375
2 1 0 0.25 0.25
6 1 0.125 0.375 0.375
10 1 0.5 0.25 0.25
14 1 0.625 0.375 0.375
17 1 0 0 0.5
21 1 0.125 0.125 0.625
25 1 0.5 0 0.5
29 1 0.625 0.125 0.625
20 1 0.25 0.25 0.5
24 1 0.875 0.375 0.625
28 1 0.75 0.25 0.5
19 1 0.25 0 0.75
23 1 0.375 0.125 0.875
27 1 0.75 0 0.75
31 1 0.875 0.125 0.875
18 1 0 0.25 0.75
22 1 0.125 0.375 0.875
26 1 0.5 0.25 0.75
30 1 0.625 0.375 0.875
32 1 0 0.5 0
36 1 0.125 0.625 0.125
40 1 0.5 0.5 0
44 1 0.625 0.625 0.125
35 1 0.25 0.75 0
39 1 0.375 0.875 0.125
43 1 0.75 0.75 0
47 1 0.875 0.875 0.125
34 1 0.25 0.5 0.25
38 1 0.375 0.625 0.375
42 1 0.75 0.5 0.25
46 1 0.875 0.625 0.375
33 1 0 0.75 0.25
37 1 0.125 0.875 0.375
41 1 0.5 0.75 0.25
45 1 0.625 0.875 0.375
48 1 0 0.5 0.5
52 1 0.125 0.625 0.625
56 1 0.5 0.5 0.5
51 1 0.25 0.75 0.5
55 1 0.375 0.875 0.625
59 1 0.75 0.75 0.5
60 1 0.875 0.875 0.625
50 1 0.25 0.5 0.75
54 1 0.375 0.625 0.875
58 1 0.75 0.5 0.75
62 1 0.875 0.625 0.875
49 1 0 0.75 0.75
53 1 0.125 0.875 0.875
57 1 0.5 0.75 0.75
61 1 0.625 0.875 0.875
ITEM: TIMESTEP
100
ITEM: NUMBER OF ATOMS
62
ITEM: BOX BOUNDS pp pp pp
0.0000000000000000e+00 1.0859999999999999e+01
0.0000000000000000e+00 1.0859999999999999e+01
0.0000000000000000e+00 1.0859999999999999e+01
ITEM: ATOMS id type xs ys zs
1 1 0 0 0
5 1 0.125 0.125 0.125
9 1 0.5 0 0
13 1 0.625 0.125 0.125
4 1 0.25 0.25 0
8 1 0.37639 0.374453 0.119816
12 1 0.75 0.25 0
16 1 0.875 0.375 0.125
3 1 0.25 0 0.25
7 1 0.373496 0.122129 0.380733
11 1 0.75 0 0.25
15 1 0.875 0.125 0.375
2 1 0 0.25 0.25
6 1 0.12251 0.371076 0.369641
10 1 0.493773 0.250588 0.251365
14 1 0.627081 0.381402 0.375016
17 1 0 0 0.5
21 1 0.125 0.125 0.625
25 1 0.495724 -0.000929782 0.501697
29 1 0.624836 0.126865 0.626161
20 1 0.243463 0.253459 0.502322
24 1 0.879934 0.369627 0.623324
28 1 0.75204 0.248036 0.483062
19 1 0.25 0 0.75
23 1 0.375 0.125 0.875
27 1 0.75 0 0.75
31 1 0.875 0.125 0.875
18 1 0 0.25 0.75
22 1 0.125 0.375 0.875
26 1 0.505954 0.249473 0.75204
30 1 0.62193 0.376091 0.879936
32 1 0 0.5 0
36 1 0.125 0.625 0.125
40 1 0.503437 0.501018 -0.00487624
44 1 0.616737 0.632439 0.131128
35 1 0.25 0.75 0
39 1 0.375 0.875 0.125
43 1 0.75 0.75 0
47 1 0.875 0.875 0.125
34 1 0.247098 0.489287 0.240672
38 1 0.378457 0.629609 0.373516
42 1 0.753933 0.494185 0.25625
46 1 0.875199 0.627445 0.373954
33 1 0 0.75 0.25
37 1 0.125 0.875 0.375
41 1 0.504381 0.753319 0.249433
45 1 0.632887 0.868385 0.379273
48 1 0.00959779 0.500515 0.503929
52 1 0.126493 0.619468 0.619141
56 1 0.503703 0.500112 0.501215
51 1 0.251802 0.750128 0.506929
55 1 0.371235 0.870274 0.629381
59 1 0.749178 0.754949 0.492592
60 1 0.875 0.875 0.625
50 1 0.251692 0.502156 0.755895
54 1 0.370977 0.629469 0.882453
58 1 0.74184 0.501786 0.749676
62 1 0.875 0.625 0.875
49 1 0 0.75 0.75
53 1 0.125 0.875 0.875
57 1 0.494742 0.754476 0.745229
61 1 0.625 0.875 0.875
ITEM: TIMESTEP
200
ITEM: NUMBER OF ATOMS
62
ITEM: BOX BOUNDS pp pp pp
0.0000000000000000e+00 1.0859999999999999e+01
0.0000000000000000e+00 1.0859999999999999e+01
0.0000000000000000e+00 1.0859999999999999e+01
ITEM: ATOMS id type xs ys zs
1 1 0 0 0
5 1 0.125 0.125 0.125
9 1 0.5 0 0
13 1 0.625 0.125 0.125
4 1 0.25 0.25 0
8 1 0.378302 0.373043 0.114323
12 1 0.75 0.25 0
16 1 0.875 0.375 0.125
3 1 0.25 0 0.25
7 1 0.370024 0.121953 0.384962
11 1 0.75 0 0.25
15 1 0.875 0.125 0.375
2 1 0 0.25 0.25
6 1 0.121837 0.368967 0.366414
10 1 0.490797 0.251174 0.253006
14 1 0.625883 0.383789 0.374265
17 1 0 0 0.5
21 1 0.125 0.125 0.625
25 1 0.494207 -0.00399307 0.50501
29 1 0.626017 0.128126 0.624549
20 1 0.23872 0.255151 0.503159
24 1 0.881101 0.367392 0.620766
28 1 0.752069 0.248193 0.475089
19 1 0.25 0 0.75
23 1 0.375 0.125 0.875
27 1 0.75 0 0.75
31 1 0.875 0.125 0.875
18 1 0 0.25 0.75
22 1 0.125 0.375 0.875
26 1 0.509865 0.248775 0.755228
30 1 0.622013 0.376319 0.881254
32 1 0 0.5 0
36 1 0.125 0.625 0.125
40 1 0.503289 0.504542 -0.00471687
44 1 0.6156 0.633732 0.13329
35 1 0.25 0.75 0
39 1 0.375 0.875 0.125
43 1 0.75 0.75 0
47 1 0.875 0.875 0.125
34 1 0.245651 0.483607 0.234998
38 1 0.38044 0.630985 0.372465
42 1 0.756694 0.493854 0.258374
46 1 0.876926 0.627988 0.374918
33 1 0 0.75 0.25
37 1 0.125 0.875 0.375
41 1 0.504917 0.758528 0.251936
45 1 0.633814 0.869662 0.378728
48 1 0.0130994 0.498049 0.502608
52 1 0.13084 0.617564 0.620233
56 1 0.506379 0.501942 0.501699
51 1 0.252158 0.749237 0.508739
55 1 0.367876 0.870332 0.631603
59 1 0.754028 0.755408 0.490911
60 1 0.875 0.875 0.625
50 1 0.252016 0.504718 0.761015
54 1 0.370734 0.632264 0.884531
58 1 0.73716 0.501726 0.749247
62 1 0.875 0.625 0.875
49 1 0 0.75 0.75
53 1 0.125 0.875 0.875
57 1 0.491372 0.755999 0.745842
61 1 0.625 0.875 0.875
ITEM: TIMESTEP
300
ITEM: NUMBER OF ATOMS
62
ITEM: BOX BOUNDS pp pp pp
0.0000000000000000e+00 1.0859999999999999e+01
0.0000000000000000e+00 1.0859999999999999e+01
0.0000000000000000e+00 1.0859999999999999e+01
ITEM: ATOMS id type xs ys zs
1 1 0 0 0
5 1 0.125 0.125 0.125
9 1 0.5 0 0
13 1 0.625 0.125 0.125
4 1 0.25 0.25 0
8 1 0.380749 0.370918 0.110094
12 1 0.75 0.25 0
16 1 0.875 0.375 0.125
3 1 0.25 0 0.25
7 1 0.365449 0.12429 0.387148
11 1 0.75 0 0.25
15 1 0.875 0.125 0.375
2 1 0 0.25 0.25
6 1 0.123547 0.369421 0.365623
10 1 0.491739 0.251394 0.254526
14 1 0.62104 0.381825 0.372145
17 1 0 0 0.5
21 1 0.125 0.125 0.625
25 1 0.495454 -0.00760863 0.508961
29 1 0.628501 0.128262 0.620392
20 1 0.237072 0.254999 0.502614
24 1 0.877684 0.368987 0.61745
28 1 0.749266 0.251254 0.478888
19 1 0.25 0 0.75
23 1 0.375 0.125 0.875
27 1 0.75 0 0.75
31 1 0.875 0.125 0.875
18 1 0 0.25 0.75
22 1 0.125 0.375 0.875
26 1 0.510768 0.247493 0.758667
30 1 0.625131 0.376353 0.879704
32 1 0 0.5 0
36 1 0.125 0.625 0.125
40 1 0.500263 0.509834 0.000197371
44 1 0.622 0.629264 0.131884
35 1 0.25 0.75 0
39 1 0.375 0.875 0.125
43 1 0.75 0.75 0
47 1 0.875 0.875 0.125
34 1 0.246676 0.484559 0.234318
38 1 0.379894 0.62831 0.371785
42 1 0.757661 0.499507 0.255652
46 1 0.881151 0.625697 0.377373
33 1 0 0.75 0.25
37 1 0.125 0.875 0.375
41 1 0.501463 0.763527 0.256084
45 1 0.628659 0.878633 0.3753
48 1 0.010316 0.493542 0.497006
52 1 0.135943 0.619149 0.627817
56 1 0.507551 0.50604 0.501685
51 1 0.251161 0.747603 0.504324
55 1 0.3659 0.874898 0.630997
59 1 0.762542 0.752238 0.494894
60 1 0.875 0.875 0.625
50 1 0.251235 0.506909 0.764565
54 1 0.374772 0.632825 0.880664
58 1 0.73752 0.500041 0.748354
62 1 0.875 0.625 0.875
49 1 0 0.75 0.75
53 1 0.125 0.875 0.875
57 1 0.490935 0.754291 0.752358
61 1 0.625 0.875 0.875
ITEM: TIMESTEP
400
ITEM: NUMBER OF ATOMS
62
ITEM: BOX BOUNDS pp pp pp
0.0000000000000000e+00 1.0859999999999999e+01
0.0000000000000000e+00 1.0859999999999999e+01
0.0000000000000000e+00 1.0859999999999999e+01
ITEM: ATOMS id type xs ys zs
1 1 0 0 0
5 1 0.125 0.125 0.125
9 1 0.5 0 0
13 1 0.625 0.125 0.125
4 1 0.25 0.25 0
8 1 0.382798 0.369083 0.109904
12 1 0.75 0.25 0
16 1 0.875 0.375 0.125
3 1 0.25 0 0.25
7 1 0.362893 0.127025 0.387384
11 1 0.75 0 0.25
15 1 0.875 0.125 0.375
2 1 0 0.25 0.25
6 1 0.126773 0.371505 0.366227
10 1 0.494711 0.250518 0.2549
14 1 0.615732 0.378886 0.369125
17 1 0 0 0.5
21 1 0.125 0.125 0.625
25 1 0.49796 -0.00748269 0.510762
29 1 0.630388 0.12747 0.616528
20 1 0.238486 0.253692 0.501527
24 1 0.871215 0.373292 0.615033
28 1 0.745431 0.255236 0.490965
19 1 0.25 0 0.75
23 1 0.375 0.125 0.875
27 1 0.75 0 0.75
31 1 0.875 0.125 0.875
18 1 0 0.25 0.75
22 1 0.125 0.375 0.875
26 1 0.509848 0.245007 0.760579
30 1 0.628045 0.37771 0.87831
32 1 0 0.5 0
36 1 0.125 0.625 0.125
40 1 0.498449 0.513481 0.00542102
44 1 0.631021 0.624758 0.130475
35 1 0.25 0.75 0
39 1 0.375 0.875 0.125
43 1 0.75 0.75 0
47 1 0.875 0.875 0.125
34 1 0.250899 0.490558 0.237642
38 1 0.377216 0.622893 0.371538
42 1 0.755927 0.506922 0.25033
46 1 0.887042 0.621303 0.379314
33 1 0 0.75 0.25
37 1 0.125 0.875 0.375
41 1 0.497089 0.764021 0.257886
45 1 0.623235 0.88776 0.375109
48 1 0.00553639 0.49075 0.492547
52 1 0.136752 0.622141 0.635516
56 1 0.507425 0.51137 0.500976
51 1 0.25011 0.74639 0.496872
55 1 0.366973 0.878062 0.628758
59 1 0.767936 0.749787 0.499514
60 1 0.875 0.875 0.625
50 1 0.250685 0.507468 0.766391
54 1 0.379633 0.631531 0.875655
58 1 0.743498 0.497859 0.746665
62 1 0.875 0.625 0.875
49 1 0 0.75 0.75
53 1 0.125 0.875 0.875
57 1 0.492842 0.753097 0.759864
61 1 0.625 0.875 0.875
ITEM: TIMESTEP
500
ITEM: NUMBER OF ATOMS
62
ITEM: BOX BOUNDS pp pp pp
0.0000000000000000e+00 1.0859999999999999e+01
0.0000000000000000e+00 1.0859999999999999e+01
0.0000000000000000e+00 1.0859999999999999e+01
ITEM: ATOMS id type xs ys zs
1 1 0 0 0
5 1 0.125 0.125 0.125
9 1 0.5 0 0
13 1 0.625 0.125 0.125
4 1 0.25 0.25 0
8 1 0.383447 0.368465 0.115013
12 1 0.75 0.25 0
16 1 0.875 0.375 0.125
3 1 0.25 0 0.25
7 1 0.364891 0.128003 0.385162
11 1 0.75 0 0.25
15 1 0.875 0.125 0.375
2 1 0 0.25 0.25
6 1 0.130127 0.373914 0.367263
10 1 0.496942 0.247595 0.253054
14 1 0.614035 0.378436 0.367939
17 1 0 0 0.5
21 1 0.125 0.125 0.625
25 1 0.499641 -0.000926773 0.5092
29 1 0.629655 0.125594 0.617103
20 1 0.24186 0.252279 0.500944
24 1 0.865706 0.378469 0.615708
28 1 0.742172 0.257953 0.502794
19 1 0.25 0 0.75
23 1 0.375 0.125 0.875
27 1 0.75 0 0.75
31 1 0.875 0.125 0.875
18 1 0 0.25 0.75
22 1 0.125 0.375 0.875
26 1 0.509196 0.241922 0.760106
30 1 0.628703 0.38035 0.878171
32 1 0 0.5 0
36 1 0.125 0.625 0.125
40 1 0.500322 0.513254 0.00796391
44 1 0.636777 0.625848 0.129276
35 1 0.25 0.75 0
39 1 0.375 0.875 0.125
43 1 0.75 0.75 0
47 1 0.875 0.875 0.125
34 1 0.257581 0.498698 0.243094
38 1 0.37366 0.617466 0.371155
42 1 0.753804 0.509968 0.246564
46 1 0.890434 0.618226 0.37843
33 1 0 0.75 0.25
37 1 0.125 0.875 0.375
41 1 0.494726 0.759275 0.256818
45 1 0.620113 0.890794 0.378577
48 1 0.00291882 0.490564 0.493052
52 1 0.132243 0.625828 0.638546
56 1 0.506769 0.51591 0.499337
51 1 0.249488 0.745781 0.490736
55 1 0.370945 0.87588 0.626303
59 1 0.767555 0.748617 0.501359
60 1 0.875 0.875 0.625
50 1 0.251122 0.505878 0.766154
54 1 0.381467 0.628525 0.875392
58 1 0.753335 0.49672 0.745129
62 1 0.875 0.625 0.875
49 1 0 0.75 0.75
53 1 0.125 0.875 0.875
57 1 0.496811 0.755491 0.762394
61 1 0.625 0.875 0.875
ITEM: TIMESTEP
600
ITEM: NUMBER OF ATOMS
62
ITEM: BOX BOUNDS pp pp pp
0.0000000000000000e+00 1.0859999999999999e+01
0.0000000000000000e+00 1.0859999999999999e+01
0.0000000000000000e+00 1.0859999999999999e+01
ITEM: ATOMS id type xs ys zs
1 1 0 0 0
5 1 0.125 0.125 0.125
9 1 0.5 0 0
13 1 0.625 0.125 0.125
4 1 0.25 0.25 0
8 1 0.382191 0.36998 0.124058
12 1 0.75 0.25 0
16 1 0.875 0.375 0.125
3 1 0.25 0 0.25
7 1 0.371176 0.126725 0.380346
11 1 0.75 0 0.25
15 1 0.875 0.125 0.375
2 1 0 0.25 0.25
6 1 0.132795 0.376106 0.368751
10 1 0.497893 0.243444 0.249748
14 1 0.616999 0.380882 0.369873
17 1 0 0 0.5
21 1 0.125 0.125 0.625
25 1 0.498183 0.0096369 0.504993
29 1 0.626544 0.12317 0.624291
20 1 0.246233 0.251268 0.50104
24 1 0.866046 0.381527 0.619542
28 1 0.739719 0.258619 0.507484
19 1 0.25 0 0.75
23 1 0.375 0.125 0.875
27 1 0.75 0 0.75
31 1 0.875 0.125 0.875
18 1 0 0.25 0.75
22 1 0.125 0.375 0.875
26 1 0.509821 0.239849 0.758071
30 1 0.627702 0.383274 0.878121
32 1 0 0.5 0
36 1 0.125 0.625 0.125
40 1 0.505427 0.50892 0.00783873
44 1 0.635549 0.633305 0.127529
35 1 0.25 0.75 0
39 1 0.375 0.875 0.125
43 1 0.75 0.75 0
47 1 0.875 0.875 0.125
34 1 0.262652 0.504298 0.247134
38 1 0.371831 0.616393 0.371467
42 1 0.753818 0.505904 0.247205
46 1 0.888111 0.618917 0.374458
33 1 0 0.75 0.25
37 1 0.125 0.875 0.375
41 1 0.495738 0.7512 0.254216
45 1 0.620277 0.885441 0.382788
48 1 0.00437751 0.4925 0.498831
52 1 0.125555 0.628194 0.635416
56 1 0.506577 0.518037 0.497172
51 1 0.249121 0.745358 0.489076
55 1 0.376423 0.870377 0.624034
59 1 0.761852 0.748258 0.49927
60 1 0.875 0.875 0.625
50 1 0.251783 0.503263 0.762938
54 1 0.380529 0.625569 0.880095
58 1 0.761999 0.49854 0.746778
62 1 0.875 0.625 0.875
49 1 0 0.75 0.75
53 1 0.125 0.875 0.875
57 1 0.500576 0.759153 0.758818
61 1 0.625 0.875 0.875
ITEM: TIMESTEP
700
ITEM: NUMBER OF ATOMS
62
ITEM: BOX BOUNDS pp pp pp
0.0000000000000000e+00 1.0859999999999999e+01
0.0000000000000000e+00 1.0859999999999999e+01
0.0000000000000000e+00 1.0859999999999999e+01
ITEM: ATOMS id type xs ys zs
1 1 0 0 0
5 1 0.125 0.125 0.125
9 1 0.5 0 0
13 1 0.625 0.125 0.125
4 1 0.25 0.25 0
8 1 0.379693 0.373657 0.132989
12 1 0.75 0.25 0
16 1 0.875 0.375 0.125
3 1 0.25 0 0.25
7 1 0.377675 0.125366 0.373593
11 1 0.75 0 0.25
15 1 0.875 0.125 0.375
2 1 0 0.25 0.25
6 1 0.134292 0.377813 0.371193
10 1 0.499335 0.241183 0.24756
14 1 0.622371 0.383655 0.373512
17 1 0 0 0.5
21 1 0.125 0.125 0.625
25 1 0.495122 0.0168557 0.500642
29 1 0.623319 0.122204 0.634319
20 1 0.251406 0.250189 0.500785
24 1 0.873431 0.37962 0.624436
28 1 0.738886 0.257082 0.505664
19 1 0.25 0 0.75
23 1 0.375 0.125 0.875
27 1 0.75 0 0.75
31 1 0.875 0.125 0.875
18 1 0 0.25 0.75
22 1 0.125 0.375 0.875
26 1 0.510477 0.240794 0.756867
30 1 0.627394 0.384801 0.876518
32 1 0 0.5 0
36 1 0.125 0.625 0.125
40 1 0.511063 0.502137 0.00679501
44 1 0.629165 0.640085 0.127364
35 1 0.25 0.75 0
39 1 0.375 0.875 0.125
43 1 0.75 0.75 0
47 1 0.875 0.875 0.125
34 1 0.26154 0.504141 0.247359
38 1 0.37389 0.622343 0.373925
42 1 0.754242 0.498643 0.250012
46 1 0.881315 0.621722 0.370565
33 1 0 0.75 0.25
37 1 0.125 0.875 0.375
41 1 0.499347 0.743856 0.251398
45 1 0.622618 0.874758 0.385216
48 1 0.00803835 0.497212 0.506115
52 1 0.120936 0.627247 0.627477
56 1 0.507365 0.517348 0.495238
51 1 0.248723 0.745125 0.492924
55 1 0.380851 0.866529 0.620918
59 1 0.753344 0.748799 0.49494
60 1 0.875 0.875 0.625
50 1 0.251802 0.501383 0.756949
54 1 0.379153 0.624325 0.88533
58 1 0.764819 0.5033 0.752891
62 1 0.875 0.625 0.875
49 1 0 0.75 0.75
53 1 0.125 0.875 0.875
57 1 0.502079 0.759095 0.75257
61 1 0.625 0.875 0.875
ITEM: TIMESTEP
800
ITEM: NUMBER OF ATOMS
62
ITEM: BOX BOUNDS pp pp pp
0.0000000000000000e+00 1.0859999999999999e+01
0.0000000000000000e+00 1.0859999999999999e+01
0.0000000000000000e+00 1.0859999999999999e+01
ITEM: ATOMS id type xs ys zs
1 1 0 0 0
5 1 0.125 0.125 0.125
9 1 0.5 0 0
13 1 0.625 0.125 0.125
4 1 0.25 0.25 0
8 1 0.378016 0.377221 0.136576
12 1 0.75 0.25 0
16 1 0.875 0.375 0.125
3 1 0.25 0 0.25
7 1 0.379558 0.12595 0.365987
11 1 0.75 0 0.25
15 1 0.875 0.125 0.375
2 1 0 0.25 0.25
6 1 0.134033 0.378664 0.374979
10 1 0.502595 0.243818 0.248168
14 1 0.626996 0.383728 0.377163
17 1 0 0 0.5
21 1 0.125 0.125 0.625
25 1 0.49525 0.0157229 0.499335
29 1 0.621689 0.123359 0.64016
20 1 0.256926 0.248497 0.499297
24 1 0.883282 0.374687 0.629625
28 1 0.741408 0.253258 0.501897
19 1 0.25 0 0.75
23 1 0.375 0.125 0.875
27 1 0.75 0 0.75
31 1 0.875 0.125 0.875
18 1 0 0.25 0.75
22 1 0.125 0.375 0.875
26 1 0.508833 0.246147 0.758816
30 1 0.629791 0.383224 0.873252
32 1 0 0.5 0
36 1 0.125 0.625 0.125
40 1 0.513431 0.496099 0.00734264
44 1 0.623544 0.638634 0.127879
35 1 0.25 0.75 0
39 1 0.375 0.875 0.125
43 1 0.75 0.75 0
47 1 0.875 0.875 0.125
34 1 0.254807 0.50174 0.247601
38 1 0.377604 0.631013 0.376526
42 1 0.753068 0.493519 0.251475
46 1 0.873468 0.624442 0.369955
33 1 0 0.75 0.25
37 1 0.125 0.875 0.375
41 1 0.502137 0.743091 0.250479
45 1 0.623568 0.865079 0.383456
48 1 0.00936121 0.502504 0.509063
52 1 0.121572 0.624988 0.619953
56 1 0.508891 0.514666 0.494363
51 1 0.248169 0.746109 0.500407
55 1 0.381842 0.867458 0.616384
59 1 0.746397 0.749045 0.492316
60 1 0.875 0.875 0.625
50 1 0.251025 0.501239 0.750036
54 1 0.378835 0.62387 0.886716
58 1 0.761399 0.506534 0.758903
62 1 0.875 0.625 0.875
49 1 0 0.75 0.75
53 1 0.125 0.875 0.875
57 1 0.502139 0.753473 0.747656
61 1 0.625 0.875 0.875
ITEM: TIMESTEP
900
ITEM: NUMBER OF ATOMS
62
ITEM: BOX BOUNDS pp pp pp
0.0000000000000000e+00 1.0859999999999999e+01
0.0000000000000000e+00 1.0859999999999999e+01
0.0000000000000000e+00 1.0859999999999999e+01
ITEM: ATOMS id type xs ys zs
1 1 0 0 0
5 1 0.125 0.125 0.125
9 1 0.5 0 0
13 1 0.625 0.125 0.125
4 1 0.25 0.25 0
8 1 0.377819 0.378108 0.133211
12 1 0.75 0.25 0
16 1 0.875 0.375 0.125
3 1 0.25 0 0.25
7 1 0.377295 0.127393 0.360891
11 1 0.75 0 0.25
15 1 0.875 0.125 0.375
2 1 0 0.25 0.25
6 1 0.131498 0.377998 0.379927
10 1 0.507428 0.251856 0.250774
14 1 0.629237 0.37951 0.37983
17 1 0 0 0.5
21 1 0.125 0.125 0.625
25 1 0.49951 0.00779541 0.499853
29 1 0.621586 0.126417 0.638686
20 1 0.261444 0.246273 0.496894
24 1 0.889012 0.371622 0.633164
28 1 0.747858 0.247811 0.500145
19 1 0.25 0 0.75
23 1 0.375 0.125 0.875
27 1 0.75 0 0.75
31 1 0.875 0.125 0.875
18 1 0 0.25 0.75
22 1 0.125 0.375 0.875
26 1 0.504439 0.254319 0.762601
30 1 0.63378 0.378545 0.871397
32 1 0 0.5 0
36 1 0.125 0.625 0.125
40 1 0.510914 0.49264 0.00925927
44 1 0.623145 0.628184 0.127007
35 1 0.25 0.75 0
39 1 0.375 0.875 0.125
43 1 0.75 0.75 0
47 1 0.875 0.875 0.125
34 1 0.24676 0.501721 0.251252
38 1 0.379608 0.636311 0.378075
42 1 0.750297 0.493222 0.25035
46 1 0.867518 0.626138 0.372738
33 1 0 0.75 0.25
37 1 0.125 0.875 0.375
41 1 0.501495 0.750465 0.25123
45 1 0.620886 0.862571 0.376437
48 1 0.00494026 0.504304 0.504111
52 1 0.127482 0.625084 0.619389
56 1 0.510256 0.511507 0.494967
51 1 0.247849 0.749641 0.506049
55 1 0.379752 0.872573 0.613697
59 1 0.744545 0.747146 0.495097
60 1 0.875 0.875 0.625
50 1 0.249916 0.502458 0.74441
54 1 0.379837 0.62279 0.883052
58 1 0.75476 0.504932 0.759433
62 1 0.875 0.625 0.875
49 1 0 0.75 0.75
53 1 0.125 0.875 0.875
57 1 0.501604 0.744767 0.745369
61 1 0.625 0.875 0.875
ITEM: TIMESTEP
1000
ITEM: NUMBER OF ATOMS
62
ITEM: BOX BOUNDS pp pp pp
0.0000000000000000e+00 1.0859999999999999e+01
0.0000000000000000e+00 1.0859999999999999e+01
0.0000000000000000e+00 1.0859999999999999e+01
ITEM: ATOMS id type xs ys zs
1 1 0 0 0
5 1 0.125 0.125 0.125
9 1 0.5 0 0
13 1 0.625 0.125 0.125
4 1 0.25 0.25 0
8 1 0.376669 0.376381 0.126984
12 1 0.75 0.25 0
16 1 0.875 0.375 0.125
3 1 0.25 0 0.25
7 1 0.375799 0.128203 0.360869
11 1 0.75 0 0.25
15 1 0.875 0.125 0.375
2 1 0 0.25 0.25
6 1 0.126805 0.375211 0.384325
10 1 0.511522 0.261652 0.252867
14 1 0.630394 0.372632 0.381646
17 1 0 0 0.5
21 1 0.125 0.125 0.625
25 1 0.505043 -0.00169837 0.498483
29 1 0.622265 0.130606 0.631916
20 1 0.263013 0.24432 0.495165
24 1 0.886329 0.373345 0.632002
28 1 0.756468 0.243315 0.502321
19 1 0.25 0 0.75
23 1 0.375 0.125 0.875
27 1 0.75 0 0.75
31 1 0.875 0.125 0.875
18 1 0 0.25 0.75
22 1 0.125 0.375 0.875
26 1 0.498535 0.261529 0.764052
30 1 0.636015 0.372746 0.874628
32 1 0 0.5 0
36 1 0.125 0.625 0.125
40 1 0.505149 0.491577 0.00853011
44 1 0.62637 0.615639 0.126623
35 1 0.25 0.75 0
39 1 0.375 0.875 0.125
43 1 0.75 0.75 0
47 1 0.875 0.875 0.125
34 1 0.242242 0.504027 0.256807
38 1 0.378793 0.636698 0.379209
42 1 0.746994 0.496872 0.248151
46 1 0.865244 0.626076 0.376395
33 1 0 0.75 0.25
37 1 0.125 0.875 0.375
41 1 0.498058 0.758478 0.249271
45 1 0.619305 0.86885 0.369252
48 1 -0.00245043 0.503586 0.495787
52 1 0.132654 0.626819 0.624681
56 1 0.510746 0.508772 0.496716
51 1 0.248525 0.755545 0.505652
55 1 0.376584 0.878932 0.617228
59 1 0.745542 0.745172 0.501971
60 1 0.875 0.875 0.625
50 1 0.249768 0.503256 0.742352
54 1 0.380842 0.620362 0.876241
58 1 0.749311 0.50001 0.75368
62 1 0.875 0.625 0.875
49 1 0 0.75 0.75
53 1 0.125 0.875 0.875
57 1 0.500813 0.737447 0.744709
61 1 0.625 0.875 0.875
ITEM: TIMESTEP
1100
ITEM: NUMBER OF ATOMS
62
ITEM: BOX BOUNDS pp pp pp
0.0000000000000000e+00 1.0859999999999999e+01
0.0000000000000000e+00 1.0859999999999999e+01
0.0000000000000000e+00 1.0859999999999999e+01
ITEM: ATOMS id type xs ys zs
1 1 0 0 0
5 1 0.125 0.125 0.125
9 1 0.5 0 0
13 1 0.625 0.125 0.125
4 1 0.25 0.25 0
8 1 0.372705 0.37418 0.123226
12 1 0.75 0.25 0
16 1 0.875 0.375 0.125
3 1 0.25 0 0.25
7 1 0.378701 0.127726 0.364836
11 1 0.75 0 0.25
15 1 0.875 0.125 0.375
2 1 0 0.25 0.25
6 1 0.121475 0.37074 0.38572
10 1 0.511643 0.266923 0.251394
14 1 0.633169 0.367945 0.384398
17 1 0 0 0.5
21 1 0.125 0.125 0.625
25 1 0.508457 -0.00757678 0.495436
29 1 0.623047 0.133865 0.623847
20 1 0.260288 0.243536 0.49574
24 1 0.87704 0.378247 0.626469
28 1 0.764113 0.242719 0.507483
19 1 0.25 0 0.75
23 1 0.375 0.125 0.875
27 1 0.75 0 0.75
31 1 0.875 0.125 0.875
18 1 0 0.25 0.75
22 1 0.125 0.375 0.875
26 1 0.492518 0.265351 0.761189
30 1 0.634279 0.369167 0.881282
32 1 0 0.5 0
36 1 0.125 0.625 0.125
40 1 0.499013 0.492144 0.00235091
44 1 0.62814 0.608851 0.126008
35 1 0.25 0.75 0
39 1 0.375 0.875 0.125
43 1 0.75 0.75 0
47 1 0.875 0.875 0.125
34 1 0.242865 0.506331 0.261935
38 1 0.376111 0.633812 0.379827
42 1 0.745982 0.499651 0.248652
46 1 0.866016 0.625112 0.377772
33 1 0 0.75 0.25
37 1 0.125 0.875 0.375
41 1 0.494582 0.759876 0.244464
45 1 0.623339 0.879399 0.36615
48 1 -0.00838609 0.502615 0.491368
52 1 0.132195 0.629431 0.629256
56 1 0.510455 0.506486 0.498785
51 1 0.250528 0.761243 0.501206
55 1 0.374409 0.883445 0.626437
59 1 0.745913 0.745964 0.509095
60 1 0.875 0.875 0.625
50 1 0.251471 0.501537 0.745113
54 1 0.379927 0.616898 0.869754
58 1 0.747104 0.494476 0.7455
62 1 0.875 0.625 0.875
49 1 0 0.75 0.75
53 1 0.125 0.875 0.875
57 1 0.500594 0.734885 0.744383
61 1 0.625 0.875 0.875
ITEM: TIMESTEP
1200
ITEM: NUMBER OF ATOMS
62
ITEM: BOX BOUNDS pp pp pp
0.0000000000000000e+00 1.0859999999999999e+01
0.0000000000000000e+00 1.0859999999999999e+01
0.0000000000000000e+00 1.0859999999999999e+01
ITEM: ATOMS id type xs ys zs
1 1 0 0 0
5 1 0.125 0.125 0.125
9 1 0.5 0 0
13 1 0.625 0.125 0.125
4 1 0.25 0.25 0
8 1 0.367075 0.374338 0.123552
12 1 0.75 0.25 0
16 1 0.875 0.375 0.125
3 1 0.25 0 0.25
7 1 0.38522 0.125938 0.370865
11 1 0.75 0 0.25
15 1 0.875 0.125 0.375
2 1 0 0.25 0.25
6 1 0.117448 0.366572 0.383508
10 1 0.507721 0.265171 0.246667
14 1 0.6374 0.367817 0.388489
17 1 0 0 0.5
21 1 0.125 0.125 0.625
25 1 0.507542 -0.00630856 0.494216
29 1 0.622741 0.134851 0.618185
20 1 0.25398 0.243829 0.498496
24 1 0.868643 0.382571 0.61999
28 1 0.767856 0.245123 0.511782
19 1 0.25 0 0.75
23 1 0.375 0.125 0.875
27 1 0.75 0 0.75
31 1 0.875 0.125 0.875
18 1 0 0.25 0.75
22 1 0.125 0.375 0.875
26 1 0.488247 0.265341 0.755073
30 1 0.628345 0.370331 0.885319
32 1 0 0.5 0
36 1 0.125 0.625 0.125
40 1 0.494139 0.492891 -0.00638395
44 1 0.625007 0.611038 0.122624
35 1 0.25 0.75 0
39 1 0.375 0.875 0.125
43 1 0.75 0.75 0
47 1 0.875 0.875 0.125
34 1 0.246136 0.506116 0.264911
38 1 0.373888 0.629972 0.379793
42 1 0.748838 0.497773 0.253361
46 1 0.867547 0.625996 0.376027
33 1 0 0.75 0.25
37 1 0.125 0.875 0.375
41 1 0.49556 0.754175 0.241526
45 1 0.630389 0.884879 0.366149
48 1 -0.0103242 0.501851 0.493716
52 1 0.127703 0.631914 0.629319
56 1 0.509681 0.504532 0.500548
51 1 0.253461 0.763966 0.498065
55 1 0.375716 0.883296 0.635399
59 1 0.745064 0.749556 0.513187
60 1 0.875 0.875 0.625
50 1 0.252835 0.497237 0.750266
54 1 0.37693 0.6146 0.866216
58 1 0.746054 0.490992 0.740495
62 1 0.875 0.625 0.875
49 1 0 0.75 0.75
53 1 0.125 0.875 0.875
57 1 0.501281 0.738065 0.744271
61 1 0.625 0.875 0.875
ITEM: TIMESTEP
1300
ITEM: NUMBER OF ATOMS
62
ITEM: BOX BOUNDS pp pp pp
0.0000000000000000e+00 1.0859999999999999e+01
0.0000000000000000e+00 1.0859999999999999e+01
0.0000000000000000e+00 1.0859999999999999e+01
ITEM: ATOMS id type xs ys zs
1 1 0 0 0
5 1 0.125 0.125 0.125
9 1 0.5 0 0
13 1 0.625 0.125 0.125
4 1 0.25 0.25 0
8 1 0.362687 0.378113 0.126566
12 1 0.75 0.25 0
16 1 0.875 0.375 0.125
3 1 0.25 0 0.25
7 1 0.390672 0.124466 0.376741
11 1 0.75 0 0.25
15 1 0.875 0.125 0.375
2 1 0 0.25 0.25
6 1 0.116096 0.365512 0.379557
10 1 0.503 0.258532 0.24278
14 1 0.639736 0.370711 0.391469
17 1 0 0 0.5
21 1 0.125 0.125 0.625
25 1 0.503962 -8.02096e-05 0.496078
29 1 0.620736 0.133702 0.617522
20 1 0.246651 0.244326 0.501455
24 1 0.867645 0.384746 0.616901
28 1 0.765793 0.245975 0.510972
19 1 0.25 0 0.75
23 1 0.375 0.125 0.875
27 1 0.75 0 0.75
31 1 0.875 0.125 0.875
18 1 0 0.25 0.75
22 1 0.125 0.375 0.875
26 1 0.487279 0.261959 0.747465
30 1 0.620719 0.374259 0.882445
32 1 0 0.5 0
36 1 0.125 0.625 0.125
40 1 0.49011 0.493751 -0.0116353
44 1 0.619389 0.618356 0.118072
35 1 0.25 0.75 0
39 1 0.375 0.875 0.125
43 1 0.75 0.75 0
47 1 0.875 0.875 0.125
34 1 0.248118 0.502142 0.264148
38 1 0.374631 0.626823 0.379845
42 1 0.752548 0.493519 0.258262
46 1 0.869216 0.629574 0.373616
33 1 0 0.75 0.25
37 1 0.125 0.875 0.375
41 1 0.501183 0.7448 0.242562
45 1 0.635098 0.880429 0.369631
48 1 -0.00761651 0.502427 0.500224
52 1 0.123284 0.63173 0.625201
56 1 0.508414 0.502868 0.501942
51 1 0.256584 0.762859 0.498907
55 1 0.380942 0.878671 0.639122
59 1 0.74374 0.754409 0.512176
60 1 0.875 0.875 0.625
50 1 0.250829 0.492209 0.75314
54 1 0.37343 0.616619 0.866039
58 1 0.743229 0.492053 0.742136
62 1 0.875 0.625 0.875
49 1 0 0.75 0.75
53 1 0.125 0.875 0.875
57 1 0.502462 0.745059 0.745711
61 1 0.625 0.875 0.875
ITEM: TIMESTEP
1400
ITEM: NUMBER OF ATOMS
62
ITEM: BOX BOUNDS pp pp pp
0.0000000000000000e+00 1.0859999999999999e+01
0.0000000000000000e+00 1.0859999999999999e+01
0.0000000000000000e+00 1.0859999999999999e+01
ITEM: ATOMS id type xs ys zs
1 1 0 0 0
5 1 0.125 0.125 0.125
9 1 0.5 0 0
13 1 0.625 0.125 0.125
4 1 0.25 0.25 0
8 1 0.36217 0.382613 0.129611
12 1 0.75 0.25 0
16 1 0.875 0.375 0.125
3 1 0.25 0 0.25
7 1 0.389394 0.125783 0.379814
11 1 0.75 0 0.25
15 1 0.875 0.125 0.375
2 1 0 0.25 0.25
6 1 0.117924 0.369071 0.376923
10 1 0.499733 0.250768 0.242797
14 1 0.637506 0.374279 0.391354
17 1 0 0 0.5
21 1 0.125 0.125 0.625
25 1 0.502387 0.00434068 0.500749
29 1 0.618453 0.131062 0.622289
20 1 0.241147 0.244785 0.502141
24 1 0.872545 0.384132 0.620353
28 1 0.758759 0.244127 0.50534
19 1 0.25 0 0.75
23 1 0.375 0.125 0.875
27 1 0.75 0 0.75
31 1 0.875 0.125 0.875
18 1 0 0.25 0.75
22 1 0.125 0.375 0.875
26 1 0.489566 0.255947 0.740131
30 1 0.614379 0.376548 0.873002
32 1 0 0.5 0
36 1 0.125 0.625 0.125
40 1 0.486182 0.496445 -0.0100756
44 1 0.615771 0.624316 0.114077
35 1 0.25 0.75 0
39 1 0.375 0.875 0.125
43 1 0.75 0.75 0
47 1 0.875 0.875 0.125
34 1 0.246844 0.496711 0.260223
38 1 0.3785 0.624025 0.380204
42 1 0.754575 0.491193 0.259604
46 1 0.871259 0.633923 0.373824
33 1 0 0.75 0.25
37 1 0.125 0.875 0.375
41 1 0.507037 0.737472 0.247372
45 1 0.633913 0.870012 0.375729
48 1 -0.00181907 0.505317 0.504705
52 1 0.121784 0.628428 0.619959
56 1 0.506631 0.501448 0.503397
51 1 0.258892 0.758221 0.502897
55 1 0.3863 0.874169 0.635636
59 1 0.743627 0.75811 0.506794
60 1 0.875 0.875 0.625
50 1 0.245991 0.489446 0.751328
54 1 0.369965 0.623403 0.867602
58 1 0.739735 0.497539 0.749189
62 1 0.875 0.625 0.875
49 1 0 0.75 0.75
53 1 0.125 0.875 0.875
57 1 0.504431 0.751875 0.750302
61 1 0.625 0.875 0.875
ITEM: TIMESTEP
1500
ITEM: NUMBER OF ATOMS
62
ITEM: BOX BOUNDS pp pp pp
0.0000000000000000e+00 1.0859999999999999e+01
0.0000000000000000e+00 1.0859999999999999e+01
0.0000000000000000e+00 1.0859999999999999e+01
ITEM: ATOMS id type xs ys zs
1 1 0 0 0
5 1 0.125 0.125 0.125
9 1 0.5 0 0
13 1 0.625 0.125 0.125
4 1 0.25 0.25 0
8 1 0.366484 0.382969 0.130119
12 1 0.75 0.25 0
16 1 0.875 0.375 0.125
3 1 0.25 0 0.25
7 1 0.380081 0.128991 0.380073
11 1 0.75 0 0.25
15 1 0.875 0.125 0.375
2 1 0 0.25 0.25
6 1 0.121363 0.375593 0.376916
10 1 0.498039 0.245897 0.246927
14 1 0.6305 0.376386 0.386996
17 1 0 0 0.5
21 1 0.125 0.125 0.625
25 1 0.504041 0.00339504 0.506218
29 1 0.61932 0.126798 0.629612
20 1 0.239315 0.24589 0.499446
24 1 0.877804 0.380452 0.628813
28 1 0.749926 0.243036 0.49989
19 1 0.25 0 0.75
23 1 0.375 0.125 0.875
27 1 0.75 0 0.75
31 1 0.875 0.125 0.875
18 1 0 0.25 0.75
22 1 0.125 0.375 0.875
26 1 0.492727 0.248884 0.73532
30 1 0.609413 0.375785 0.862278
32 1 0 0.5 0
36 1 0.125 0.625 0.125
40 1 0.483214 0.501203 -0.00445394
44 1 0.617135 0.624618 0.111379
35 1 0.25 0.75 0
39 1 0.375 0.875 0.125
43 1 0.75 0.75 0
47 1 0.875 0.875 0.125
34 1 0.243587 0.494749 0.255664
38 1 0.382554 0.62019 0.380394
42 1 0.754136 0.493951 0.256853
46 1 0.873363 0.636163 0.377312
33 1 0 0.75 0.25
37 1 0.125 0.875 0.375
41 1 0.509183 0.736249 0.254934
45 1 0.626518 0.862416 0.379719
48 1 0.00298795 0.508275 0.503034
52 1 0.124756 0.624851 0.618442
56 1 0.5046 0.500086 0.505602
51 1 0.259607 0.75092 0.506757
55 1 0.387914 0.873517 0.627008
59 1 0.747582 0.757359 0.501187
60 1 0.875 0.875 0.625
50 1 0.241311 0.491637 0.7457
54 1 0.366468 0.631825 0.869019
58 1 0.738864 0.505364 0.757177
62 1 0.875 0.625 0.875
49 1 0 0.75 0.75
53 1 0.125 0.875 0.875
57 1 0.506588 0.755362 0.757215
61 1 0.625 0.875 0.875
ITEM: TIMESTEP
1600
ITEM: NUMBER OF ATOMS
62
ITEM: BOX BOUNDS pp pp pp
0.0000000000000000e+00 1.0859999999999999e+01
0.0000000000000000e+00 1.0859999999999999e+01
0.0000000000000000e+00 1.0859999999999999e+01
ITEM: ATOMS id type xs ys zs
1 1 0 0 0
5 1 0.125 0.125 0.125
9 1 0.5 0 0
13 1 0.625 0.125 0.125
4 1 0.25 0.25 0
8 1 0.373082 0.377702 0.128601
12 1 0.75 0.25 0
16 1 0.875 0.375 0.125
3 1 0.25 0 0.25
7 1 0.367474 0.129789 0.379506
11 1 0.75 0 0.25
15 1 0.875 0.125 0.375
2 1 0 0.25 0.25
6 1 0.123507 0.381446 0.378158
10 1 0.497491 0.246198 0.253472
14 1 0.620675 0.376295 0.378269
17 1 0 0 0.5
21 1 0.125 0.125 0.625
25 1 0.505921 -6.34356e-05 0.507995
29 1 0.625496 0.120601 0.634546
20 1 0.240693 0.248293 0.495036
24 1 0.879757 0.376688 0.636864
28 1 0.742192 0.244728 0.498326
19 1 0.25 0 0.75
23 1 0.375 0.125 0.875
27 1 0.75 0 0.75
31 1 0.875 0.125 0.875
18 1 0 0.25 0.75
22 1 0.125 0.375 0.875
26 1 0.49336 0.242826 0.734655
30 1 0.605564 0.374202 0.856531
32 1 0 0.5 0
36 1 0.125 0.625 0.125
40 1 0.482602 0.506281 -0.000414876
44 1 0.622388 0.621043 0.112562
35 1 0.25 0.75 0
39 1 0.375 0.875 0.125
43 1 0.75 0.75 0
47 1 0.875 0.875 0.125
34 1 0.242089 0.498239 0.25138
38 1 0.3836 0.615316 0.380261
42 1 0.751148 0.501527 0.251836
46 1 0.875836 0.634063 0.381121
33 1 0 0.75 0.25
37 1 0.125 0.875 0.375
41 1 0.506814 0.739234 0.260768
45 1 0.617215 0.862869 0.380799