ITEM: TIMESTEP
0
ITEM: NUMBER OF ATOMS
62
ITEM: BOX BOUNDS pp pp pp
0.0000000000000000e+00 1.0859999999999999e+01
0.0000000000000000e+00 1.0859999999999999e+01
0.0000000000000000e+00 1.0859999999999999e+01
ITEM: ATOMS id type xs ys zs
1 1 0 0 0
5 1 0.125 0.125 0.125
9 1 0.5 0 0
13 1 0.625 0.125 0.125
4 1 0.25 0.25 0
8 1 0.375 0.375 0.125
12 1 0.75 0.25 0
16 1 0.875 0.375 0.125
3 1 0.25 0 0.25
7 1 0.375 0.125 0.375
11 1 0.75 0 0.25
15 1 0.875 0.125 0.375
2 1 0 0.25 0.25
6 1 0.125 0.375 0.375
10 1 0.5 0.25 0.25
14 1 0.625 0.375 0.375
17 1 0 0 0.5
21 1 0.125 0.125 0.625
25 1 0.5 0 0.5
29 1 0.625 0.125 0.625
20 1 0.25 0.25 0.5
24 1 0.875 0.375 0.625
28 1 0.75 0.25 0.5
19 1 0.25 0 0.75
23 1 0.375 0.125 0.875
27 1 0.75 0 0.75
31 1 0.875 0.125 0.875
18 1 0 0.25 0.75
22 1 0.125 0.375 0.875
26 1 0.5 0.25 0.75
30 1 0.625 0.375 0.875
32 1 0 0.5 0
36 1 0.125 0.625 0.125
40 1 0.5 0.5 0
44 1 0.625 0.625 0.125
35 1 0.25 0.75 0
39 1 0.375 0.875 0.125
43 1 0.75 0.75 0
47 1 0.875 0.875 0.125
34 1 0.25 0.5 0.25
38 1 0.375 0.625 0.375
42 1 0.75 0.5 0.25
46 1 0.875 0.625 0.375
33 1 0 0.75 0.25
37 1 0.125 0.875 0.375
41 1 0.5 0.75 0.25
45 1 0.625 0.875 0.375
48 1 0 0.5 0.5
52 1 0.125 0.625 0.625
56 1 0.5 0.5 0.5
51 1 0.25 0.75 0.5
55 1 0.375 0.875 0.625
59 1 0.75 0.75 0.5
60 1 0.875 0.875 0.625
50 1 0.25 0.5 0.75
54 1 0.375 0.625 0.875
58 1 0.75 0.5 0.75
62 1 0.875 0.625 0.875
49 1 0 0.75 0.75
53 1 0.125 0.875 0.875
57 1 0.5 0.75 0.75
61 1 0.625 0.875 0.875
ITEM: TIMESTEP
100
ITEM: NUMBER OF ATOMS
62
ITEM: BOX BOUNDS pp pp pp
0.0000000000000000e+00 1.0859999999999999e+01
0.0000000000000000e+00 1.0859999999999999e+01
0.0000000000000000e+00 1.0859999999999999e+01
ITEM: ATOMS id type xs ys zs
1 1 0 0 0
5 1 0.125 0.125 0.125
9 1 0.5 0 0
13 1 0.625 0.125 0.125
4 1 0.25 0.25 0
8 1 0.377226 0.374118 0.116798
12 1 0.75 0.25 0
16 1 0.875 0.375 0.125
3 1 0.25 0 0.25
7 1 0.372621 0.120366 0.383967
11 1 0.75 0 0.25
15 1 0.875 0.125 0.375
2 1 0 0.25 0.25
6 1 0.121013 0.368826 0.366417
10 1 0.490119 0.250905 0.252143
14 1 0.628332 0.385053 0.374971
17 1 0 0 0.5
21 1 0.125 0.125 0.625
25 1 0.493217 -0.00144248 0.5027
29 1 0.624823 0.127832 0.626899
20 1 0.2398 0.255669 0.503861
24 1 0.88296 0.366389 0.622331
28 1 0.753147 0.246953 0.473109
19 1 0.25 0 0.75
23 1 0.375 0.125 0.875
27 1 0.75 0 0.75
31 1 0.875 0.125 0.875
18 1 0 0.25 0.75
22 1 0.125 0.375 0.875
26 1 0.509253 0.249335 0.753066
30 1 0.620273 0.376592 0.882939
32 1 0 0.5 0
36 1 0.125 0.625 0.125
40 1 0.505398 0.501653 -0.00769236
44 1 0.611949 0.636723 0.134547
35 1 0.25 0.75 0
39 1 0.375 0.875 0.125
43 1 0.75 0.75 0
47 1 0.875 0.875 0.125
34 1 0.245274 0.482936 0.235158
38 1 0.380445 0.632496 0.372584
42 1 0.756389 0.490747 0.259918
46 1 0.875341 0.628906 0.373208
33 1 0 0.75 0.25
37 1 0.125 0.875 0.375
41 1 0.506831 0.755377 0.249216
45 1 0.637257 0.864837 0.381425
48 1 0.0151076 0.500653 0.50615
52 1 0.127419 0.616427 0.615805
56 1 0.505857 0.500172 0.502181
51 1 0.252829 0.750179 0.510952
55 1 0.368902 0.867674 0.631896
59 1 0.748785 0.757429 0.488669
60 1 0.875 0.875 0.625
50 1 0.252834 0.503251 0.759169
54 1 0.368589 0.632084 0.886954
58 1 0.736863 0.503029 0.749381
62 1 0.875 0.625 0.875
49 1 0 0.75 0.75
53 1 0.125 0.875 0.875
57 1 0.491929 0.756871 0.74231
61 1 0.625 0.875 0.875
ITEM: TIMESTEP
200
ITEM: NUMBER OF ATOMS
62
ITEM: BOX BOUNDS pp pp pp
0.0000000000000000e+00 1.0859999999999999e+01
0.0000000000000000e+00 1.0859999999999999e+01
0.0000000000000000e+00 1.0859999999999999e+01
ITEM: ATOMS id type xs ys zs
1 1 0 0 0
5 1 0.125 0.125 0.125
9 1 0.5 0 0
13 1 0.625 0.125 0.125
4 1 0.25 0.25 0
8 1 0.380927 0.371705 0.107824
12 1 0.75 0.25 0
16 1 0.875 0.375 0.125
3 1 0.25 0 0.25
7 1 0.367074 0.119742 0.390486
11 1 0.75 0 0.25
15 1 0.875 0.125 0.375
2 1 0 0.25 0.25
6 1 0.119922 0.3657 0.361187
10 1 0.48494 0.251677 0.254699
14 1 0.62568 0.388872 0.374573
17 1 0 0 0.5
21 1 0.125 0.125 0.625
25 1 0.490856 -0.00631925 0.507721
29 1 0.626913 0.129546 0.624581
20 1 0.232524 0.25926 0.505835
24 1 0.885087 0.362694 0.618086
28 1 0.751866 0.248273 0.459803
19 1 0.25 0 0.75
23 1 0.375 0.125 0.875
27 1 0.75 0 0.75
31 1 0.875 0.125 0.875
18 1 0 0.25 0.75
22 1 0.125 0.375 0.875
26 1 0.515053 0.248709 0.757647
30 1 0.620866 0.376175 0.885353
32 1 0 0.5 0
36 1 0.125 0.625 0.125
40 1 0.505284 0.507588 -0.00767687
44 1 0.611383 0.636788 0.137433
35 1 0.25 0.75 0
39 1 0.375 0.875 0.125
43 1 0.75 0.75 0
47 1 0.875 0.875 0.125
34 1 0.243293 0.474713 0.226975
38 1 0.382251 0.633985 0.369481
42 1 0.761403 0.49093 0.262374
46 1 0.877985 0.629987 0.374228
33 1 0 0.75 0.25
37 1 0.125 0.875 0.375
41 1 0.506719 0.765457 0.254454
45 1 0.636725 0.869093 0.378603
48 1 0.0198913 0.495312 0.503248
52 1 0.135373 0.614537 0.618358
56 1 0.510041 0.503038 0.503773
51 1 0.253206 0.748596 0.513847
55 1 0.362815 0.868549 0.635173
59 1 0.758187 0.755721 0.488449
60 1 0.875 0.875 0.625
50 1 0.253814 0.506911 0.766868
54 1 0.368414 0.636175 0.89066
58 1 0.728684 0.503399 0.74832
62 1 0.875 0.625 0.875
49 1 0 0.75 0.75
53 1 0.125 0.875 0.875
57 1 0.487875 0.758306 0.743075
61 1 0.625 0.875 0.875
ITEM: TIMESTEP
300
ITEM: NUMBER OF ATOMS
62
ITEM: BOX BOUNDS pp pp pp
0.0000000000000000e+00 1.0859999999999999e+01
0.0000000000000000e+00 1.0859999999999999e+01
0.0000000000000000e+00 1.0859999999999999e+01
ITEM: ATOMS id type xs ys zs
1 1 0 0 0
5 1 0.125 0.125 0.125
9 1 0.5 0 0
13 1 0.625 0.125 0.125
4 1 0.25 0.25 0
8 1 0.386523 0.368285 0.100214
12 1 0.75 0.25 0
16 1 0.875 0.375 0.125
3 1 0.25 0 0.25
7 1 0.359562 0.122838 0.394319
11 1 0.75 0 0.25
15 1 0.875 0.125 0.375
2 1 0 0.25 0.25
6 1 0.122983 0.366864 0.360156
10 1 0.485166 0.251963 0.257426
14 1 0.616395 0.387217 0.371921
17 1 0 0 0.5
21 1 0.125 0.125 0.625
25 1 0.492482 -0.0118329 0.513631
29 1 0.630967 0.129859 0.61794
20 1 0.230025 0.260807 0.505922
24 1 0.878386 0.36604 0.613184
28 1 0.744735 0.255122 0.464372
19 1 0.25 0 0.75
23 1 0.375 0.125 0.875
27 1 0.75 0 0.75
31 1 0.875 0.125 0.875
18 1 0 0.25 0.75
22 1 0.125 0.375 0.875
26 1 0.516146 0.247122 0.76233
30 1 0.625994 0.375208 0.883639
32 1 0 0.5 0
36 1 0.125 0.625 0.125
40 1 0.501367 0.516412 -0.000643378
44 1 0.621962 0.62781 0.136223
35 1 0.25 0.75 0
39 1 0.375 0.875 0.125
43 1 0.75 0.75 0
47 1 0.875 0.875 0.125
34 1 0.247201 0.478911 0.22829
38 1 0.377772 0.626466 0.364357
42 1 0.763517 0.500309 0.257279
46 1 0.884857 0.626523 0.377196
33 1 0 0.75 0.25
37 1 0.125 0.875 0.375
41 1 0.500351 0.774939 0.261111
45 1 0.62905 0.883914 0.373652
48 1 0.0156634 0.487052 0.49419
52 1 0.144022 0.616965 0.630618
56 1 0.511431 0.50972 0.505236
51 1 0.251475 0.745902 0.506843
55 1 0.359301 0.876105 0.634061
59 1 0.771175 0.749671 0.496009
60 1 0.875 0.875 0.625
50 1 0.253338 0.509922 0.772061
54 1 0.375588 0.636411 0.884655
58 1 0.729089 0.499973 0.745145
62 1 0.875 0.625 0.875
49 1 0 0.75 0.75
53 1 0.125 0.875 0.875
57 1 0.488664 0.754518 0.752604
61 1 0.625 0.875 0.875
ITEM: TIMESTEP
400
ITEM: NUMBER OF ATOMS
62
ITEM: BOX BOUNDS pp pp pp
0.0000000000000000e+00 1.0859999999999999e+01
0.0000000000000000e+00 1.0859999999999999e+01
0.0000000000000000e+00 1.0859999999999999e+01
ITEM: ATOMS id type xs ys zs
1 1 0 0 0
5 1 0.125 0.125 0.125
9 1 0.5 0 0
13 1 0.625 0.125 0.125
4 1 0.25 0.25 0
8 1 0.391825 0.365417 0.0979928
12 1 0.75 0.25 0
16 1 0.875 0.375 0.125
3 1 0.25 0 0.25
7 1 0.354261 0.126869 0.396145
11 1 0.75 0 0.25
15 1 0.875 0.125 0.375
2 1 0 0.25 0.25
6 1 0.129252 0.370448 0.360562
10 1 0.488426 0.251094 0.259115
14 1 0.605517 0.38577 0.365888
17 1 0 0 0.5
21 1 0.125 0.125 0.625
25 1 0.496123 -0.0120333 0.516813
29 1 0.633832 0.129238 0.611128
20 1 0.232296 0.260869 0.505364
24 1 0.866936 0.372781 0.609375
28 1 0.737639 0.261893 0.48047
19 1 0.25 0 0.75
23 1 0.375 0.125 0.875
27 1 0.75 0 0.75
31 1 0.875 0.125 0.875
18 1 0 0.25 0.75
22 1 0.125 0.375 0.875
26 1 0.514385 0.243326 0.764614
30 1 0.630505 0.377173 0.881577
32 1 0 0.5 0
36 1 0.125 0.625 0.125
40 1 0.499913 0.522137 0.00780806
44 1 0.63482 0.621264 0.135659
35 1 0.25 0.75 0
39 1 0.375 0.875 0.125
43 1 0.75 0.75 0
47 1 0.875 0.875 0.125
34 1 0.255307 0.488873 0.233601
38 1 0.372307 0.61602 0.361195
42 1 0.761281 0.510697 0.249894
46 1 0.894978 0.619185 0.379933
33 1 0 0.75 0.25
37 1 0.125 0.875 0.375
41 1 0.492062 0.775324 0.263224
45 1 0.623646 0.897441 0.376634
48 1 0.00885634 0.483097 0.487881
52 1 0.145053 0.620318 0.642184
56 1 0.509715 0.519013 0.505904
51 1 0.249887 0.743804 0.494533
55 1 0.361698 0.879875 0.630235
59 1 0.776702 0.746046 0.502774
60 1 0.875 0.875 0.625
50 1 0.253341 0.510108 0.775215
54 1 0.384055 0.634493 0.876088
58 1 0.737365 0.495477 0.740917
62 1 0.875 0.625 0.875
49 1 0 0.75 0.75
53 1 0.125 0.875 0.875
57 1 0.492323 0.752248 0.762798
61 1 0.625 0.875 0.875
ITEM: TIMESTEP
500
ITEM: NUMBER OF ATOMS
62
ITEM: BOX BOUNDS pp pp pp
0.0000000000000000e+00 1.0859999999999999e+01
0.0000000000000000e+00 1.0859999999999999e+01
0.0000000000000000e+00 1.0859999999999999e+01
ITEM: ATOMS id type xs ys zs
1 1 0 0 0
5 1 0.125 0.125 0.125
9 1 0.5 0 0
13 1 0.625 0.125 0.125
4 1 0.25 0.25 0
8 1 0.39511 0.363453 0.10265
12 1 0.75 0.25 0
16 1 0.875 0.375 0.125
3 1 0.25 0 0.25
7 1 0.35463 0.128963 0.395159
11 1 0.75 0 0.25
15 1 0.875 0.125 0.375
2 1 0 0.25 0.25
6 1 0.136167 0.374147 0.360296
10 1 0.491166 0.247125 0.257657
14 1 0.599017 0.388577 0.361313
17 1 0 0 0.5
21 1 0.125 0.125 0.625
25 1 0.498967 -0.00350355 0.516491
29 1 0.633017 0.127166 0.609599
20 1 0.237668 0.260539 0.505987
24 1 0.856995 0.379819 0.608625
28 1 0.733071 0.266029 0.497442
19 1 0.25 0 0.75
23 1 0.375 0.125 0.875
27 1 0.75 0 0.75
31 1 0.875 0.125 0.875
18 1 0 0.25 0.75
22 1 0.125 0.375 0.875
26 1 0.513013 0.238438 0.763691
30 1 0.631643 0.381998 0.880102
32 1 0 0.5 0
36 1 0.125 0.625 0.125
40 1 0.503298 0.522275 0.0135986
44 1 0.640631 0.626925 0.135161
35 1 0.25 0.75 0
39 1 0.375 0.875 0.125
43 1 0.75 0.75 0
47 1 0.875 0.875 0.125
34 1 0.264323 0.498669 0.237847
38 1 0.3702 0.608365 0.362207
42 1 0.759796 0.513388 0.246504
46 1 0.901059 0.613801 0.379654
33 1 0 0.75 0.25
37 1 0.125 0.875 0.375
41 1 0.488314 0.765189 0.262074
45 1 0.624306 0.898994 0.387312
48 1 0.00681546 0.485076 0.491643
52 1 0.136148 0.623874 0.64457
56 1 0.505794 0.528226 0.504645
51 1 0.248972 0.741801 0.482911
55 1 0.368398 0.874626 0.625954
59 1 0.770333 0.746002 0.501918
60 1 0.875 0.875 0.625
50 1 0.254783 0.50641 0.776454
54 1 0.387364 0.630092 0.874866
58 1 0.75071 0.493086 0.737919
62 1 0.875 0.625 0.875
49 1 0 0.75 0.75
53 1 0.125 0.875 0.875
57 1 0.499424 0.756561 0.764565
61 1 0.625 0.875 0.875
ITEM: TIMESTEP
600
ITEM: NUMBER OF ATOMS
62
ITEM: BOX BOUNDS pp pp pp
0.0000000000000000e+00 1.0859999999999999e+01
0.0000000000000000e+00 1.0859999999999999e+01
0.0000000000000000e+00 1.0859999999999999e+01
ITEM: ATOMS id type xs ys zs
1 1 0 0 0
5 1 0.125 0.125 0.125
9 1 0.5 0 0
13 1 0.625 0.125 0.125
4 1 0.25 0.25 0
8 1 0.3951 0.36332 0.112887
12 1 0.75 0.25 0
16 1 0.875 0.375 0.125
3 1 0.25 0 0.25
7 1 0.361479 0.12785 0.390468
11 1 0.75 0 0.25
15 1 0.875 0.125 0.375
2 1 0 0.25 0.25
6 1 0.14121 0.377531 0.360503
10 1 0.492799 0.239656 0.253608
14 1 0.59903 0.39591 0.361463
17 1 0 0 0.5
21 1 0.125 0.125 0.625
25 1 0.496869 0.0111385 0.512871
29 1 0.629092 0.123551 0.61752
20 1 0.244309 0.260685 0.508334
24 1 0.857688 0.383747 0.611231
28 1 0.729367 0.267276 0.504557
19 1 0.25 0 0.75
23 1 0.375 0.125 0.875
27 1 0.75 0 0.75
31 1 0.875 0.125 0.875
18 1 0 0.25 0.75
22 1 0.125 0.375 0.875
26 1 0.514009 0.234842 0.76064
30 1 0.629909 0.387565 0.878435
32 1 0 0.5 0
36 1 0.125 0.625 0.125
40 1 0.510571 0.517466 0.0155742
44 1 0.636851 0.643362 0.134082
35 1 0.25 0.75 0
39 1 0.375 0.875 0.125
43 1 0.75 0.75 0
47 1 0.875 0.875 0.125
34 1 0.26869 0.501761 0.235302
38 1 0.374014 0.60914 0.368887
42 1 0.761212 0.506505 0.249443
46 1 0.898124 0.614656 0.37587
33 1 0 0.75 0.25
37 1 0.125 0.875 0.375
41 1 0.491659 0.749822 0.259821
45 1 0.6289 0.888399 0.397429
48 1 0.0120555 0.488989 0.504331
52 1 0.123704 0.625219 0.638031
56 1 0.50251 0.534832 0.502812
51 1 0.248518 0.739229 0.477363
55 1 0.376598 0.864168 0.622458
59 1 0.757894 0.746986 0.49574
60 1 0.875 0.875 0.625
50 1 0.255802 0.501518 0.772821
54 1 0.387007 0.626125 0.881038
58 1 0.762305 0.49722 0.741657
62 1 0.875 0.625 0.875
49 1 0 0.75 0.75
53 1 0.125 0.875 0.875
57 1 0.505972 0.76264 0.757276
61 1 0.625 0.875 0.875
ITEM: TIMESTEP
700
ITEM: NUMBER OF ATOMS
62
ITEM: BOX BOUNDS pp pp pp
0.0000000000000000e+00 1.0859999999999999e+01
0.0000000000000000e+00 1.0859999999999999e+01
0.0000000000000000e+00 1.0859999999999999e+01
ITEM: ATOMS id type xs ys zs
1 1 0 0 0
5 1 0.125 0.125 0.125
9 1 0.5 0 0
13 1 0.625 0.125 0.125
4 1 0.25 0.25 0
8 1 0.391259 0.365778 0.125241
12 1 0.75 0.25 0
16 1 0.875 0.375 0.125
3 1 0.25 0 0.25
7 1 0.371062 0.126052 0.382442
11 1 0.75 0 0.25
15 1 0.875 0.125 0.375
2 1 0 0.25 0.25
6 1 0.142967 0.380151 0.362759
10 1 0.496012 0.232435 0.250346
14 1 0.602995 0.403521 0.365264
17 1 0 0 0.5
21 1 0.125 0.125 0.625
25 1 0.490457 0.0219602 0.506455
29 1 0.625533 0.121296 0.632249
20 1 0.25163 0.260664 0.510547
24 1 0.870014 0.381851 0.616061
28 1 0.726624 0.265454 0.50083
19 1 0.25 0 0.75
23 1 0.375 0.125 0.875
27 1 0.75 0 0.75
31 1 0.875 0.125 0.875
18 1 0 0.25 0.75
22 1 0.125 0.375 0.875
26 1 0.516147 0.235116 0.758448
30 1 0.628076 0.391371 0.875826
32 1 0 0.5 0
36 1 0.125 0.625 0.125
40 1 0.519131 0.509528 0.014532
44 1 0.630139 0.656509 0.135722
35 1 0.25 0.75 0
39 1 0.375 0.875 0.125
43 1 0.75 0.75 0
47 1 0.875 0.875 0.125
34 1 0.268454 0.499169 0.228696
38 1 0.377968 0.616973 0.374631
42 1 0.760419 0.497729 0.253704
46 1 0.888713 0.618381 0.373156
33 1 0 0.75 0.25
37 1 0.125 0.875 0.375
41 1 0.499496 0.738347 0.257979
45 1 0.63134 0.874238 0.401189
48 1 0.0194553 0.493879 0.516323
52 1 0.116618 0.62386 0.627864
56 1 0.504086 0.536421 0.504529
51 1 0.247592 0.737077 0.480625
55 1 0.382821 0.855889 0.618233
59 1 0.747464 0.746249 0.490253
60 1 0.875 0.875 0.625
50 1 0.255637 0.498569 0.763458
54 1 0.386174 0.625477 0.888605
58 1 0.767268 0.507451 0.753091
62 1 0.875 0.625 0.875
49 1 0 0.75 0.75
53 1 0.125 0.875 0.875
57 1 0.508746 0.762212 0.746805
61 1 0.625 0.875 0.875
ITEM: TIMESTEP
800
ITEM: NUMBER OF ATOMS
62
ITEM: BOX BOUNDS pp pp pp
0.0000000000000000e+00 1.0859999999999999e+01
0.0000000000000000e+00 1.0859999999999999e+01
0.0000000000000000e+00 1.0859999999999999e+01
ITEM: ATOMS id type xs ys zs
1 1 0 0 0
5 1 0.125 0.125 0.125
9 1 0.5 0 0
13 1 0.625 0.125 0.125
4 1 0.25 0.25 0
8 1 0.386702 0.368614 0.133815
12 1 0.75 0.25 0
16 1 0.875 0.375 0.125
3 1 0.25 0 0.25
7 1 0.375892 0.127142 0.371311
11 1 0.75 0 0.25
15 1 0.875 0.125 0.375
2 1 0 0.25 0.25
6 1 0.141543 0.381556 0.367506
10 1 0.50173 0.231429 0.249731
14 1 0.607647 0.405977 0.371024
17 1 0 0 0.5
21 1 0.125 0.125 0.625
25 1 0.487503 0.0214582 0.503172
29 1 0.623828 0.121329 0.643262
20 1 0.259191 0.259289 0.510415
24 1 0.884429 0.376723 0.62428
28 1 0.72729 0.261509 0.493389
19 1 0.25 0 0.75
23 1 0.375 0.125 0.875
27 1 0.75 0 0.75
31 1 0.875 0.125 0.875
18 1 0 0.25 0.75
22 1 0.125 0.375 0.875
26 1 0.515564 0.241854 0.760954
30 1 0.629328 0.391389 0.871968
32 1 0 0.5 0
36 1 0.125 0.625 0.125
40 1 0.524843 0.501376 0.0138859
44 1 0.629256 0.655097 0.135763
35 1 0.25 0.75 0
39 1 0.375 0.875 0.125
43 1 0.75 0.75 0
47 1 0.875 0.875 0.125
34 1 0.264935 0.497437 0.226734
38 1 0.377354 0.625146 0.374384
42 1 0.756028 0.493189 0.255562
46 1 0.877558 0.621969 0.374592
33 1 0 0.75 0.25
37 1 0.125 0.875 0.375
41 1 0.504329 0.740565 0.261829
45 1 0.623231 0.867806 0.393437
48 1 0.0211212 0.495048 0.516521
52 1 0.1218 0.625727 0.622596
56 1 0.510884 0.53336 0.510928
51 1 0.244909 0.737474 0.492011
55 1 0.383196 0.854957 0.610703
59 1 0.747079 0.738905 0.492453
60 1 0.875 0.875 0.625
50 1 0.254648 0.499016 0.751346
54 1 0.385931 0.626364 0.891922
58 1 0.765099 0.514249 0.762299
62 1 0.875 0.625 0.875
49 1 0 0.75 0.75
53 1 0.125 0.875 0.875
57 1 0.51039 0.752952 0.739668
61 1 0.625 0.875 0.875
ITEM: TIMESTEP
900
ITEM: NUMBER OF ATOMS
62
ITEM: BOX BOUNDS pp pp pp
0.0000000000000000e+00 1.0859999999999999e+01
0.0000000000000000e+00 1.0859999999999999e+01
0.0000000000000000e+00 1.0859999999999999e+01
ITEM: ATOMS id type xs ys zs
1 1 0 0 0
5 1 0.125 0.125 0.125
9 1 0.5 0 0
13 1 0.625 0.125 0.125
4 1 0.25 0.25 0
8 1 0.385571 0.368841 0.134199
12 1 0.75 0.25 0
16 1 0.875 0.375 0.125
3 1 0.25 0 0.25
7 1 0.374046 0.12969 0.36114
11 1 0.75 0 0.25
15 1 0.875 0.125 0.375
2 1 0 0.25 0.25
6 1 0.138322 0.380695 0.373612
10 1 0.508914 0.240501 0.251764
14 1 0.610915 0.400042 0.377593
17 1 0 0 0.5
21 1 0.125 0.125 0.625
25 1 0.490817 0.0115029 0.503997
29 1 0.622472 0.124061 0.644223
20 1 0.265683 0.25592 0.507312
24 1 0.892999 0.372157 0.63372
28 1 0.732756 0.255652 0.487998
19 1 0.25 0 0.75
23 1 0.375 0.125 0.875
27 1 0.75 0 0.75
31 1 0.875 0.125 0.875
18 1 0 0.25 0.75
22 1 0.125 0.375 0.875
26 1 0.510577 0.253498 0.7676
30 1 0.63416 0.38706 0.869011
32 1 0 0.5 0
36 1 0.125 0.625 0.125
40 1 0.524632 0.4952 0.0156213
44 1 0.634582 0.638856 0.133632
35 1 0.25 0.75 0
39 1 0.375 0.875 0.125
43 1 0.75 0.75 0
47 1 0.875 0.875 0.125
34 1 0.257399 0.500206 0.234367
38 1 0.37387 0.628463 0.372793
42 1 0.7502 0.495339 0.25344
46 1 0.869994 0.622929 0.378073
33 1 0 0.75 0.25
37 1 0.125 0.875 0.375
41 1 0.503018 0.754919 0.267457
45 1 0.61138 0.868996 0.380174
48 1 0.0148741 0.493104 0.504184
52 1 0.134858 0.630553 0.625797
56 1 0.518194 0.529485 0.51827
51 1 0.242361 0.742515 0.504087
55 1 0.379126 0.861344 0.604058
59 1 0.751382 0.731652 0.501924
60 1 0.875 0.875 0.625
50 1 0.253582 0.502138 0.740733
54 1 0.387119 0.626162 0.889075
58 1 0.756684 0.511437 0.760694
62 1 0.875 0.625 0.875
49 1 0 0.75 0.75
53 1 0.125 0.875 0.875
57 1 0.51118 0.73871 0.737045
61 1 0.625 0.875 0.875
ITEM: TIMESTEP
1000
ITEM: NUMBER OF ATOMS
62
ITEM: BOX BOUNDS pp pp pp
0.0000000000000000e+00 1.0859999999999999e+01
0.0000000000000000e+00 1.0859999999999999e+01
0.0000000000000000e+00 1.0859999999999999e+01
ITEM: ATOMS id type xs ys zs
1 1 0 0 0
5 1 0.125 0.125 0.125
9 1 0.5 0 0
13 1 0.625 0.125 0.125
4 1 0.25 0.25 0
8 1 0.385348 0.368689 0.128563
12 1 0.75 0.25 0
16 1 0.875 0.375 0.125
3 1 0.25 0 0.25
7 1 0.371144 0.13159 0.357515
11 1 0.75 0 0.25
15 1 0.875 0.125 0.375
2 1 0 0.25 0.25
6 1 0.134995 0.375907 0.378845
10 1 0.515598 0.255892 0.255168
14 1 0.614165 0.387924 0.384014
17 1 0 0 0.5
21 1 0.125 0.125 0.625
25 1 0.497098 0.000536796 0.503432
29 1 0.619796 0.130305 0.637163
20 1 0.269297 0.250614 0.502063
24 1 0.888839 0.371989 0.635718
28 1 0.74376 0.249471 0.489447
19 1 0.25 0 0.75
23 1 0.375 0.125 0.875
27 1 0.75 0 0.75
31 1 0.875 0.125 0.875
18 1 0 0.25 0.75
22 1 0.125 0.375 0.875
26 1 0.50251 0.264199 0.772399
30 1 0.639458 0.379711 0.871937
32 1 0 0.5 0
36 1 0.125 0.625 0.125
40 1 0.518776 0.490996 0.0168667
44 1 0.638193 0.619032 0.133392
35 1 0.25 0.75 0
39 1 0.375 0.875 0.125
43 1 0.75 0.75 0
47 1 0.875 0.875 0.125
34 1 0.249172 0.504278 0.249174
38 1 0.370132 0.628469 0.374844
42 1 0.745393 0.50114 0.249777
46 1 0.869185 0.619868 0.379469
33 1 0 0.75 0.25
37 1 0.125 0.875 0.375
41 1 0.494286 0.7648 0.260598
45 1 0.611025 0.878539 0.375392
48 1 0.00556851 0.495054 0.490478
52 1 0.140681 0.631211 0.632869
56 1 0.522929 0.526842 0.523707
51 1 0.243527 0.752452 0.506774
55 1 0.375169 0.87068 0.606045
59 1 0.751795 0.73241 0.514176
60 1 0.875 0.875 0.625
50 1 0.255145 0.504593 0.736401
54 1 0.389013 0.623103 0.881655
58 1 0.748515 0.502982 0.749169
62 1 0.875 0.625 0.875
49 1 0 0.75 0.75
53 1 0.125 0.875 0.875
57 1 0.509712 0.726054 0.73686
61 1 0.625 0.875 0.875
ITEM: TIMESTEP
1100
ITEM: NUMBER OF ATOMS
62
ITEM: BOX BOUNDS pp pp pp
0.0000000000000000e+00 1.0859999999999999e+01
0.0000000000000000e+00 1.0859999999999999e+01
0.0000000000000000e+00 1.0859999999999999e+01
ITEM: ATOMS id type xs ys zs
1 1 0 0 0
5 1 0.125 0.125 0.125
9 1 0.5 0 0
13 1 0.625 0.125 0.125
4 1 0.25 0.25 0
8 1 0.381523 0.370473 0.123492
12 1 0.75 0.25 0
16 1 0.875 0.375 0.125
3 1 0.25 0 0.25
7 1 0.373156 0.132724 0.359641
11 1 0.75 0 0.25
15 1 0.875 0.125 0.375
2 1 0 0.25 0.25
6 1 0.13163 0.367769 0.381183
10 1 0.517955 0.268778 0.25601
14 1 0.621407 0.376899 0.391575
17 1 0 0 0.5
21 1 0.125 0.125 0.625
25 1 0.502531 -0.00378494 0.500019
29 1 0.617077 0.137454 0.627129
20 1 0.268054 0.244725 0.497457
24 1 0.875586 0.376152 0.628477
28 1 0.756574 0.245286 0.49823
19 1 0.25 0 0.75
23 1 0.375 0.125 0.875
27 1 0.75 0 0.75
31 1 0.875 0.125 0.875
18 1 0 0.25 0.75
22 1 0.125 0.375 0.875
26 1 0.492759 0.270901 0.771408
30 1 0.641972 0.372437 0.88077
32 1 0 0.5 0
36 1 0.125 0.625 0.125
40 1 0.510148 0.488663 0.0125298
44 1 0.632276 0.609919 0.130993
35 1 0.25 0.75 0
39 1 0.375 0.875 0.125
43 1 0.75 0.75 0
47 1 0.875 0.875 0.125
34 1 0.243706 0.505463 0.264222
38 1 0.369096 0.629138 0.381544
42 1 0.746594 0.501115 0.252039
46 1 0.871611 0.617384 0.377889
33 1 0 0.75 0.25
37 1 0.125 0.875 0.375
41 1 0.484625 0.762363 0.244897
45 1 0.62464 0.888517 0.379335
48 1 -0.00303658 0.4999 0.484336
52 1 0.13414 0.630324 0.635684
56 1 0.524462 0.524776 0.52566
51 1 0.247209 0.762075 0.50069
55 1 0.373308 0.879911 0.619899
59 1 0.747024 0.74078 0.522535
60 1 0.875 0.875 0.625
50 1 0.261356 0.502516 0.741463
54 1 0.389083 0.616741 0.873889
58 1 0.744643 0.494724 0.734815
62 1 0.875 0.625 0.875
49 1 0 0.75 0.75
53 1 0.125 0.875 0.875
57 1 0.506983 0.719666 0.737029
61 1 0.625 0.875 0.875
ITEM: TIMESTEP
1200
ITEM: NUMBER OF ATOMS
62
ITEM: BOX BOUNDS pp pp pp
0.0000000000000000e+00 1.0859999999999999e+01
0.0000000000000000e+00 1.0859999999999999e+01
0.0000000000000000e+00 1.0859999999999999e+01
ITEM: ATOMS id type xs ys zs
1 1 0 0 0
5 1 0.125 0.125 0.125
9 1 0.5 0 0
13 1 0.625 0.125 0.125
4 1 0.25 0.25 0
8 1 0.372752 0.374484 0.123556
12 1 0.75 0.25 0
16 1 0.875 0.375 0.125
3 1 0.25 0 0.25
7 1 0.381827 0.131453 0.364043
11 1 0.75 0 0.25
15 1 0.875 0.125 0.375
2 1 0 0.25 0.25
6 1 0.126703 0.359231 0.381788
10 1 0.514022 0.274115 0.251687
14 1 0.633982 0.371349 0.401732
17 1 0 0 0.5
21 1 0.125 0.125 0.625
25 1 0.50358 0.00128038 0.497348
29 1 0.614731 0.142931 0.618675
20 1 0.261282 0.239906 0.496194
24 1 0.864919 0.379268 0.615353
28 1 0.76679 0.243951 0.510844
19 1 0.25 0 0.75
23 1 0.375 0.125 0.875
27 1 0.75 0 0.75
31 1 0.875 0.125 0.875
18 1 0 0.25 0.75
22 1 0.125 0.375 0.875
26 1 0.483928 0.27403 0.765401
30 1 0.639263 0.369994 0.887914
32 1 0 0.5 0
36 1 0.125 0.625 0.125
40 1 0.501493 0.488179 0.00127848
44 1 0.6185 0.613639 0.12566
35 1 0.25 0.75 0
39 1 0.375 0.875 0.125
43 1 0.75 0.75 0
47 1 0.875 0.875 0.125
34 1 0.241515 0.503687 0.27435
38 1 0.372267 0.631365 0.390602
42 1 0.752042 0.493247 0.259746
46 1 0.871534 0.622332 0.373872
33 1 0 0.75 0.25
37 1 0.125 0.875 0.375
41 1 0.487025 0.750209 0.236415
45 1 0.640739 0.887419 0.382226
48 1 -0.00597838 0.502589 0.489146
52 1 0.122584 0.628405 0.630604
56 1 0.523135 0.522444 0.523521
51 1 0.251674 0.76712 0.495325
55 1 0.375023 0.885492 0.638202
59 1 0.740848 0.751169 0.523744
60 1 0.875 0.875 0.625
50 1 0.266816 0.496883 0.751344
54 1 0.386013 0.609194 0.870251
58 1 0.74167 0.490375 0.726079
62 1 0.875 0.625 0.875
49 1 0 0.75 0.75
53 1 0.125 0.875 0.875
57 1 0.504831 0.721965 0.736805
61 1 0.625 0.875 0.875
ITEM: TIMESTEP
1300
ITEM: NUMBER OF ATOMS
62
ITEM: BOX BOUNDS pp pp pp
0.0000000000000000e+00 1.0859999999999999e+01
0.0000000000000000e+00 1.0859999999999999e+01
0.0000000000000000e+00 1.0859999999999999e+01
ITEM: ATOMS id type xs ys zs
1 1 0 0 0
5 1 0.125 0.125 0.125
9 1 0.5 0 0
13 1 0.625 0.125 0.125
4 1 0.25 0.25 0
8 1 0.361205 0.380968 0.127706
12 1 0.75 0.25 0
16 1 0.875 0.375 0.125
3 1 0.25 0 0.25
7 1 0.392862 0.128039 0.368583
11 1 0.75 0 0.25
15 1 0.875 0.125 0.375
2 1 0 0.25 0.25
6 1 0.11996 0.354432 0.382739
10 1 0.507917 0.273472 0.246085
14 1 0.646652 0.370331 0.411125
17 1 0 0 0.5
21 1 0.125 0.125 0.625
25 1 0.502158 0.00989674 0.496055
29 1 0.611807 0.146099 0.616044
20 1 0.251514 0.235987 0.49766
24 1 0.867053 0.382699 0.605171
28 1 0.770348 0.238082 0.518602
19 1 0.25 0 0.75
23 1 0.375 0.125 0.875
27 1 0.75 0 0.75
31 1 0.875 0.125 0.875
18 1 0 0.25 0.75
22 1 0.125 0.375 0.875
26 1 0.478765 0.274395 0.75655
30 1 0.630781 0.373577 0.886503
32 1 0 0.5 0
36 1 0.125 0.625 0.125
40 1 0.49377 0.488859 -0.0104257
44 1 0.607369 0.620243 0.120153
35 1 0.25 0.75 0
39 1 0.375 0.875 0.125
43 1 0.75 0.75 0
47 1 0.875 0.875 0.125
34 1 0.242159 0.501058 0.278629
38 1 0.379548 0.632834 0.397873
42 1 0.754716 0.48475 0.265595
46 1 0.869361 0.633353 0.371079
33 1 0 0.75 0.25
37 1 0.125 0.875 0.375
41 1 0.501372 0.737702 0.242473
45 1 0.646486 0.873979 0.381138
48 1 -0.00418243 0.502709 0.499458
52 1 0.114762 0.624341 0.621148
56 1 0.520201 0.519327 0.518406
51 1 0.256438 0.768256 0.497988
55 1 0.382108 0.884847 0.650697
59 1 0.736231 0.759251 0.518673
60 1 0.875 0.875 0.625
50 1 0.264316 0.488408 0.757952
54 1 0.381846 0.60718 0.871351
58 1 0.736656 0.492343 0.727774
62 1 0.875 0.625 0.875
49 1 0 0.75 0.75
53 1 0.125 0.875 0.875
57 1 0.503439 0.731369 0.738416
61 1 0.625 0.875 0.875
ITEM: TIMESTEP
1400
ITEM: NUMBER OF ATOMS
62
ITEM: BOX BOUNDS pp pp pp
0.0000000000000000e+00 1.0859999999999999e+01
0.0000000000000000e+00 1.0859999999999999e+01
0.0000000000000000e+00 1.0859999999999999e+01
ITEM: ATOMS id type xs ys zs
1 1 0 0 0
5 1 0.125 0.125 0.125
9 1 0.5 0 0
13 1 0.625 0.125 0.125
4 1 0.25 0.25 0
8 1 0.351361 0.388568 0.132992
12 1 0.75 0.25 0
16 1 0.875 0.375 0.125
3 1 0.25 0 0.25
7 1 0.398326 0.126461 0.370397
11 1 0.75 0 0.25
15 1 0.875 0.125 0.375
2 1 0 0.25 0.25
6 1 0.113647 0.356434 0.385474
10 1 0.504205 0.269739 0.243256
14 1 0.652889 0.371618 0.416402
17 1 0 0 0.5
21 1 0.125 0.125 0.625
25 1 0.503961 0.0125699 0.497434
29 1 0.608147 0.145967 0.621832
20 1 0.243076 0.232448 0.498485
24 1 0.876866 0.387704 0.607424
28 1 0.769228 0.225804 0.519351
19 1 0.25 0 0.75
23 1 0.375 0.125 0.875
27 1 0.75 0 0.75
31 1 0.875 0.125 0.875
18 1 0 0.25 0.75
22 1 0.125 0.375 0.875
26 1 0.477847 0.272148 0.746945
30 1 0.620548 0.378379 0.875977
32 1 0 0.5 0
36 1 0.125 0.625 0.125
40 1 0.486827 0.490002 -0.0137481
44 1 0.608496 0.618527 0.114124
35 1 0.25 0.75 0
39 1 0.375 0.875 0.125
43 1 0.75 0.75 0
47 1 0.875 0.875 0.125
34 1 0.244073 0.499642 0.278731
38 1 0.38843 0.631406 0.400117
42 1 0.752483 0.482896 0.265251
46 1 0.866072 0.644301 0.373039
33 1 0 0.75 0.25
37 1 0.125 0.875 0.375
41 1 0.513951 0.734555 0.259352
45 1 0.638545 0.86068 0.373569
48 1 -0.00130053 0.50326 0.503308
52 1 0.117034 0.619904 0.615584
56 1 0.517815 0.514605 0.51318
51 1 0.260558 0.766823 0.508633
55 1 0.392155 0.881545 0.652805
59 1 0.737563 0.760019 0.51354
60 1 0.875 0.875 0.625
50 1 0.252955 0.480884 0.756227
54 1 0.375933 0.615248 0.872479
58 1 0.732969 0.498332 0.73655
62 1 0.875 0.625 0.875
49 1 0 0.75 0.75
53 1 0.125 0.875 0.875
57 1 0.50368 0.742814 0.744594
61 1 0.625 0.875 0.875
ITEM: TIMESTEP
1500
ITEM: NUMBER OF ATOMS
62
ITEM: BOX BOUNDS pp pp pp
0.0000000000000000e+00 1.0859999999999999e+01
0.0000000000000000e+00 1.0859999999999999e+01
0.0000000000000000e+00 1.0859999999999999e+01
ITEM: ATOMS id type xs ys zs
1 1 0 0 0
5 1 0.125 0.125 0.125
9 1 0.5 0 0
13 1 0.625 0.125 0.125
4 1 0.25 0.25 0
8 1 0.347151 0.393335 0.136338
12 1 0.75 0.25 0
16 1 0.875 0.375 0.125
3 1 0.25 0 0.25
7 1 0.394312 0.128224 0.368661
11 1 0.75 0 0.25
15 1 0.875 0.125 0.375
2 1 0 0.25 0.25
6 1 0.110578 0.364417 0.389022
10 1 0.505455 0.267145 0.246176
14 1 0.649735 0.371272 0.414788
17 1 0 0 0.5
21 1 0.125 0.125 0.625
25 1 0.510461 0.00553707 0.501379
29 1 0.605819 0.141473 0.633728
20 1 0.239122 0.23075 0.495654
24 1 0.882566 0.386669 0.621767
28 1 0.768258 0.217373 0.519229
19 1 0.25 0 0.75
23 1 0.375 0.125 0.875
27 1 0.75 0 0.75
31 1 0.875 0.125 0.875
18 1 0 0.25 0.75
22 1 0.125 0.375 0.875
26 1 0.479135 0.267543 0.738788
30 1 0.611646 0.379831 0.86153
32 1 0 0.5 0
36 1 0.125 0.625 0.125
40 1 0.47994 0.492011 -0.00848198
44 1 0.619615 0.610419 0.111041
35 1 0.25 0.75 0
39 1 0.375 0.875 0.125
43 1 0.75 0.75 0
47 1 0.875 0.875 0.125
34 1 0.244645 0.501633 0.278008
38 1 0.393573 0.628027 0.397891
42 1 0.747377 0.489811 0.259374
46 1 0.862406 0.649531 0.378307
33 1 0 0.75 0.25
37 1 0.125 0.875 0.375
41 1 0.517447 0.735678 0.273465
45 1 0.625832 0.858206 0.365194
48 1 0.000332614 0.506628 0.494948
52 1 0.129522 0.618759 0.618751
56 1 0.517556 0.507153 0.510558
51 1 0.263466 0.763032 0.521632
55 1 0.398806 0.88236 0.644128
59 1 0.744389 0.754373 0.510905
60 1 0.875 0.875 0.625
50 1 0.240272 0.480468 0.747543
54 1 0.366763 0.628957 0.869977
58 1 0.733936 0.506701 0.747475
62 1 0.875 0.625 0.875
49 1 0 0.75 0.75
53 1 0.125 0.875 0.875
57 1 0.507545 0.750522 0.756898
61 1 0.625 0.875 0.875
ITEM: TIMESTEP
1600
ITEM: NUMBER OF ATOMS
62
ITEM: BOX BOUNDS pp pp pp
0.0000000000000000e+00 1.0859999999999999e+01
0.0000000000000000e+00 1.0859999999999999e+01
0.0000000000000000e+00 1.0859999999999999e+01
ITEM: ATOMS id type xs ys zs
1 1 0 0 0
5 1 0.125 0.125 0.125
9 1 0.5 0 0
13 1 0.625 0.125 0.125
4 1 0.25 0.25 0
8 1 0.349679 0.392029 0.136519
12 1 0.75 0.25 0
16 1 0.875 0.375 0.125
3 1 0.25 0 0.25
7 1 0.38459 0.129222 0.367688
11 1 0.75 0 0.25
15 1 0.875 0.125 0.375
2 1 0 0.25 0.25
6 1 0.11255 0.373338 0.389338
10 1 0.509466 0.266449 0.252499
14 1 0.641593 0.368049 0.406199
17 1 0 0 0.5
21 1 0.125 0.125 0.625
25 1 0.518172 -0.00529873 0.503185
29 1 0.608835 0.130975 0.645883
20 1 0.239705 0.232361 0.488984
24 1 0.883007 0.382289 0.640169
28 1 0.765818 0.218231 0.522616
19 1 0.25 0 0.75
23 1 0.375 0.125 0.875
27 1 0.75 0 0.75
31 1 0.875 0.125 0.875
18 1 0 0.25 0.75
22 1 0.125 0.375 0.875
26 1 0.47856 0.261972 0.733593
30 1 0.604098 0.378886 0.851197
32 1 0 0.5 0
36 1 0.125 0.625 0.125
40 1 0.473689 0.496117 -0.00148456
44 1 0.631958 0.603629 0.112688
35 1 0.25 0.75 0
39 1 0.375 0.875 0.125
43 1 0.75 0.75 0
47 1 0.875 0.875 0.125
34 1 0.242566 0.508109 0.278292
38 1 0.391192 0.623116 0.395858
42 1 0.743155 0.500512 0.253079
46 1 0.861686 0.645627 0.380805
33 1 0 0.75 0.25
37 1 0.125 0.875 0.375
41 1 0.505219 0.731742 0.265261
45 1 0.624708 0.87277 0.369701
48 1 -0.00118509 0.513792 0.48472