ITEM: TIMESTEP
0
ITEM: NUMBER OF ATOMS
62
ITEM: BOX BOUNDS pp pp pp
0.0000000000000000e+00 1.0859999999999999e+01
0.0000000000000000e+00 1.0859999999999999e+01
0.0000000000000000e+00 1.0859999999999999e+01
ITEM: ATOMS id type xs ys zs
1 1 0 0 0
5 1 0.125 0.125 0.125
9 1 0.5 0 0
13 1 0.625 0.125 0.125
4 1 0.25 0.25 0
8 1 0.375 0.375 0.125
12 1 0.75 0.25 0
16 1 0.875 0.375 0.125
3 1 0.25 0 0.25
7 1 0.375 0.125 0.375
11 1 0.75 0 0.25
15 1 0.875 0.125 0.375
2 1 0 0.25 0.25
6 1 0.125 0.375 0.375
10 1 0.5 0.25 0.25
14 1 0.625 0.375 0.375
17 1 0 0 0.5
21 1 0.125 0.125 0.625
25 1 0.5 0 0.5
29 1 0.625 0.125 0.625
20 1 0.25 0.25 0.5
24 1 0.375 0.375 0.625
28 1 0.75 0.25 0.5
32 1 0.875 0.375 0.625
19 1 0.25 0 0.75
23 1 0.375 0.125 0.875
27 1 0.75 0 0.75
31 1 0.875 0.125 0.875
18 1 0 0.25 0.75
22 1 0.125 0.375 0.875
26 1 0.5 0.25 0.75
30 1 0.625 0.375 0.875
33 1 0 0.5 0
37 1 0.125 0.625 0.125
41 1 0.5 0.5 0
45 1 0.625 0.625 0.125
36 1 0.25 0.75 0
40 1 0.375 0.875 0.125
44 1 0.75 0.75 0
48 1 0.875 0.875 0.125
35 1 0.25 0.5 0.25
39 1 0.375 0.625 0.375
43 1 0.75 0.5 0.25
47 1 0.875 0.625 0.375
34 1 0 0.75 0.25
38 1 0.125 0.875 0.375
42 1 0.5 0.75 0.25
46 1 0.625 0.875 0.375
49 1 0 0.5 0.5
53 1 0.125 0.625 0.625
52 1 0.25 0.75 0.5
56 1 0.375 0.875 0.625
57 1 0.875 0.875 0.625
60 1 0.75 0.75 0.5
51 1 0.25 0.5 0.75
55 1 0.375 0.625 0.875
59 1 0.75 0.5 0.75
61 1 0.875 0.625 0.875
50 1 0 0.75 0.75
54 1 0.125 0.875 0.875
58 1 0.5 0.75 0.75
62 1 0.625 0.875 0.875
ITEM: TIMESTEP
100
ITEM: NUMBER OF ATOMS
62
ITEM: BOX BOUNDS pp pp pp
0.0000000000000000e+00 1.0859999999999999e+01
0.0000000000000000e+00 1.0859999999999999e+01
0.0000000000000000e+00 1.0859999999999999e+01
ITEM: ATOMS id type xs ys zs
1 1 0 0 0
5 1 0.125 0.125 0.125
9 1 0.5 0 0
13 1 0.625 0.125 0.125
4 1 0.25 0.25 0
8 1 0.37634 0.375523 0.118577
12 1 0.75 0.25 0
16 1 0.875 0.375 0.125
3 1 0.25 0 0.25
7 1 0.37178 0.120961 0.385339
11 1 0.75 0 0.25
15 1 0.875 0.125 0.375
2 1 0 0.25 0.25
6 1 0.120895 0.371088 0.368322
10 1 0.489342 0.251305 0.253348
14 1 0.62883 0.385183 0.374961
17 1 0 0 0.5
21 1 0.125 0.125 0.625
25 1 0.492632 -0.000333853 0.503423
29 1 0.625146 0.127612 0.627499
20 1 0.240346 0.25695 0.505877
24 1 0.384545 0.363252 0.623362
28 1 0.752954 0.246422 0.472966
32 1 0.870416 0.362422 0.629874
19 1 0.25 0 0.75
23 1 0.375 0.125 0.875
27 1 0.75 0 0.75
31 1 0.875 0.125 0.875
18 1 0 0.25 0.75
22 1 0.125 0.375 0.875
26 1 0.509999 0.249908 0.753651
30 1 0.622396 0.377187 0.883475
33 1 0 0.5 0
37 1 0.125 0.625 0.125
41 1 0.509539 0.50544 -0.00110603
45 1 0.640692 0.614753 0.131452
36 1 0.25 0.75 0
40 1 0.375 0.875 0.125
44 1 0.75 0.75 0
48 1 0.875 0.875 0.125
35 1 0.253131 0.505035 0.242459
39 1 0.390293 0.629177 0.378631
43 1 0.745579 0.497214 0.248217
47 1 0.85883 0.627057 0.369938
34 1 0 0.75 0.25
38 1 0.125 0.875 0.375
42 1 0.506755 0.738419 0.260961
46 1 0.624319 0.878216 0.37319
49 1 -0.010748 0.493536 0.498943
53 1 0.121294 0.628034 0.624211
52 1 0.25296 0.743724 0.492064
56 1 0.379588 0.873889 0.629464
57 1 0.875 0.875 0.625
60 1 0.750528 0.779015 0.49341
51 1 0.256048 0.500099 0.761519
55 1 0.373296 0.617204 0.88254
59 1 0.74969 0.506392 0.737048
61 1 0.875 0.625 0.875
50 1 0 0.75 0.75
54 1 0.125 0.875 0.875
58 1 0.487383 0.752075 0.751657
62 1 0.625 0.875 0.875
ITEM: TIMESTEP
200
ITEM: NUMBER OF ATOMS
62
ITEM: BOX BOUNDS pp pp pp
0.0000000000000000e+00 1.0859999999999999e+01
0.0000000000000000e+00 1.0859999999999999e+01
0.0000000000000000e+00 1.0859999999999999e+01
ITEM: ATOMS id type xs ys zs
1 1 0 0 0
5 1 0.125 0.125 0.125
9 1 0.5 0 0
13 1 0.625 0.125 0.125
4 1 0.25 0.25 0
8 1 0.377613 0.377691 0.113303
12 1 0.75 0.25 0
16 1 0.875 0.375 0.125
3 1 0.25 0 0.25
7 1 0.365088 0.120759 0.392916
11 1 0.75 0 0.25
15 1 0.875 0.125 0.375
2 1 0 0.25 0.25
6 1 0.118599 0.372353 0.363955
10 1 0.483234 0.25271 0.257454
14 1 0.627364 0.391334 0.373797
17 1 0 0 0.5
21 1 0.125 0.125 0.625
25 1 0.490858 -0.000738485 0.507665
29 1 0.627912 0.129057 0.625728
20 1 0.233939 0.261048 0.50948
24 1 0.391448 0.355807 0.624319
28 1 0.750342 0.247184 0.458802
32 1 0.863873 0.352272 0.63002
19 1 0.25 0 0.75
23 1 0.375 0.125 0.875
27 1 0.75 0 0.75
31 1 0.875 0.125 0.875
18 1 0 0.25 0.75
22 1 0.125 0.375 0.875
26 1 0.51617 0.249499 0.75834
30 1 0.625265 0.379823 0.885817
33 1 0 0.5 0
37 1 0.125 0.625 0.125
41 1 0.516556 0.508851 0.00218396
45 1 0.647239 0.613137 0.132582
36 1 0.25 0.75 0
40 1 0.375 0.875 0.125
44 1 0.75 0.75 0
48 1 0.875 0.875 0.125
35 1 0.257753 0.508187 0.239486
39 1 0.39847 0.625555 0.383799
43 1 0.748381 0.490897 0.248531
47 1 0.84701 0.630663 0.368384
34 1 0 0.75 0.25
38 1 0.125 0.875 0.375
42 1 0.517206 0.733503 0.262873
46 1 0.618548 0.885352 0.370183
49 1 -0.0205965 0.4891 0.497531
53 1 0.119688 0.626776 0.622945
52 1 0.255528 0.740968 0.488363
56 1 0.377225 0.873147 0.630191
57 1 0.875 0.875 0.625
60 1 0.753485 0.798974 0.486495
51 1 0.259673 0.496915 0.765006
55 1 0.373888 0.615155 0.889481
59 1 0.748734 0.510347 0.728356
61 1 0.875 0.625 0.875
50 1 0 0.75 0.75
54 1 0.125 0.875 0.875
58 1 0.479416 0.751903 0.75817
62 1 0.625 0.875 0.875
ITEM: TIMESTEP
300
ITEM: NUMBER OF ATOMS
62
ITEM: BOX BOUNDS pp pp pp
0.0000000000000000e+00 1.0859999999999999e+01
0.0000000000000000e+00 1.0859999999999999e+01
0.0000000000000000e+00 1.0859999999999999e+01
ITEM: ATOMS id type xs ys zs
1 1 0 0 0
5 1 0.125 0.125 0.125
9 1 0.5 0 0
13 1 0.625 0.125 0.125
4 1 0.25 0.25 0
8 1 0.379125 0.381163 0.110755
12 1 0.75 0.25 0
16 1 0.875 0.375 0.125
3 1 0.25 0 0.25
7 1 0.356193 0.124529 0.397061
11 1 0.75 0 0.25
15 1 0.875 0.125 0.375
2 1 0 0.25 0.25
6 1 0.118815 0.379705 0.36333
10 1 0.482152 0.254167 0.261583
14 1 0.61776 0.392581 0.372702
17 1 0 0 0.5
21 1 0.125 0.125 0.625
25 1 0.494027 0.000276654 0.51192
29 1 0.632679 0.129502 0.619515
20 1 0.231773 0.263507 0.510438
24 1 0.39474 0.353436 0.627457
28 1 0.740499 0.252942 0.461234
32 1 0.854909 0.345924 0.624684
19 1 0.25 0 0.75
23 1 0.375 0.125 0.875
27 1 0.75 0 0.75
31 1 0.875 0.125 0.875
18 1 0 0.25 0.75
22 1 0.125 0.375 0.875
26 1 0.518295 0.247841 0.763841
30 1 0.634287 0.383342 0.881117
33 1 0 0.5 0
37 1 0.125 0.625 0.125
41 1 0.520012 0.509399 0.00882316
45 1 0.645806 0.62053 0.12951
36 1 0.25 0.75 0
40 1 0.375 0.875 0.125
44 1 0.75 0.75 0
48 1 0.875 0.875 0.125
35 1 0.263483 0.50864 0.242042
39 1 0.400052 0.614553 0.389092
43 1 0.757729 0.483003 0.249662
47 1 0.841339 0.63656 0.370543
34 1 0 0.75 0.25
38 1 0.125 0.875 0.375
42 1 0.526935 0.735878 0.255418
46 1 0.607121 0.895975 0.365536
49 1 -0.0288845 0.487633 0.495719
53 1 0.120457 0.620557 0.621126
52 1 0.256523 0.74194 0.489961
56 1 0.368236 0.871893 0.627434
57 1 0.875 0.875 0.625
60 1 0.758497 0.808199 0.47727
51 1 0.261003 0.490772 0.759284
55 1 0.37606 0.617929 0.894967
59 1 0.747736 0.511395 0.724828
61 1 0.875 0.625 0.875
50 1 0 0.75 0.75
54 1 0.125 0.875 0.875
58 1 0.477218 0.750506 0.768852
62 1 0.625 0.875 0.875
ITEM: TIMESTEP
400
ITEM: NUMBER OF ATOMS
62
ITEM: BOX BOUNDS pp pp pp
0.0000000000000000e+00 1.0859999999999999e+01
0.0000000000000000e+00 1.0859999999999999e+01
0.0000000000000000e+00 1.0859999999999999e+01
ITEM: ATOMS id type xs ys zs
1 1 0 0 0
5 1 0.125 0.125 0.125
9 1 0.5 0 0
13 1 0.625 0.125 0.125
4 1 0.25 0.25 0
8 1 0.380747 0.38378 0.112448
12 1 0.75 0.25 0
16 1 0.875 0.375 0.125
3 1 0.25 0 0.25
7 1 0.349588 0.129495 0.398109
11 1 0.75 0 0.25
15 1 0.875 0.125 0.375
2 1 0 0.25 0.25
6 1 0.120538 0.390306 0.366242
10 1 0.484129 0.255138 0.264031
14 1 0.602178 0.391897 0.37089
17 1 0 0 0.5
21 1 0.125 0.125 0.625
25 1 0.496524 0.00421119 0.515622
29 1 0.636338 0.129818 0.613029
20 1 0.233191 0.266404 0.509763
24 1 0.394269 0.354906 0.631682
28 1 0.729289 0.257731 0.473505
32 1 0.846311 0.344543 0.617643
19 1 0.25 0 0.75
23 1 0.375 0.125 0.875
27 1 0.75 0 0.75
31 1 0.875 0.125 0.875
18 1 0 0.25 0.75
22 1 0.125 0.375 0.875
26 1 0.518961 0.244468 0.768063
30 1 0.645425 0.388823 0.872851
33 1 0 0.5 0
37 1 0.125 0.625 0.125
41 1 0.520663 0.50612 0.0131592
45 1 0.644233 0.628641 0.127197
36 1 0.25 0.75 0
40 1 0.375 0.875 0.125
44 1 0.75 0.75 0
48 1 0.875 0.875 0.125
35 1 0.268371 0.507084 0.248367
39 1 0.399627 0.603432 0.390707
43 1 0.764385 0.480528 0.252113
47 1 0.842273 0.642339 0.373596
34 1 0 0.75 0.25
38 1 0.125 0.875 0.375
42 1 0.52721 0.741833 0.246927
46 1 0.595402 0.906422 0.360262
49 1 -0.0351981 0.489601 0.493727
53 1 0.122454 0.611425 0.619249
52 1 0.25532 0.743269 0.494887
56 1 0.359483 0.868963 0.624581
57 1 0.875 0.875 0.625
60 1 0.761781 0.811066 0.463861
51 1 0.261905 0.485237 0.748651
55 1 0.377468 0.619535 0.897629
59 1 0.747667 0.509979 0.725852
61 1 0.875 0.625 0.875
50 1 0 0.75 0.75
54 1 0.125 0.875 0.875
58 1 0.478791 0.752083 0.778007
62 1 0.625 0.875 0.875
ITEM: TIMESTEP
500
ITEM: NUMBER OF ATOMS
62
ITEM: BOX BOUNDS pp pp pp
0.0000000000000000e+00 1.0859999999999999e+01
0.0000000000000000e+00 1.0859999999999999e+01
0.0000000000000000e+00 1.0859999999999999e+01
ITEM: ATOMS id type xs ys zs
1 1 0 0 0
5 1 0.125 0.125 0.125
9 1 0.5 0 0
13 1 0.625 0.125 0.125
4 1 0.25 0.25 0
8 1 0.381446 0.382837 0.11868
12 1 0.75 0.25 0
16 1 0.875 0.375 0.125
3 1 0.25 0 0.25
7 1 0.348506 0.132903 0.395705
11 1 0.75 0 0.25
15 1 0.875 0.125 0.375
2 1 0 0.25 0.25
6 1 0.12177 0.40018 0.371607
10 1 0.486013 0.253081 0.262431
14 1 0.587172 0.392848 0.369222
17 1 0 0 0.5
21 1 0.125 0.125 0.625
25 1 0.493666 0.010159 0.51874
29 1 0.636482 0.129142 0.612231
20 1 0.236175 0.270695 0.509225
24 1 0.391674 0.357844 0.635687
28 1 0.719098 0.258809 0.484056
32 1 0.843259 0.349815 0.614644
19 1 0.25 0 0.75
23 1 0.375 0.125 0.875
27 1 0.75 0 0.75
31 1 0.875 0.125 0.875
18 1 0 0.25 0.75
22 1 0.125 0.375 0.875
26 1 0.521075 0.241052 0.769196
30 1 0.653268 0.393595 0.865852
33 1 0 0.5 0
37 1 0.125 0.625 0.125
41 1 0.521357 0.501085 0.0119233
45 1 0.6448 0.631265 0.1273
36 1 0.25 0.75 0
40 1 0.375 0.875 0.125
44 1 0.75 0.75 0
48 1 0.875 0.875 0.125
35 1 0.270055 0.504811 0.254948
39 1 0.399357 0.597568 0.389367
43 1 0.762545 0.485878 0.258374
47 1 0.849924 0.6437 0.374134
34 1 0 0.75 0.25
38 1 0.125 0.875 0.375
42 1 0.515915 0.749243 0.243001
46 1 0.586811 0.914095 0.354338
49 1 -0.0389258 0.49481 0.492289
53 1 0.124031 0.602196 0.617631
52 1 0.2513 0.74074 0.499041
56 1 0.357292 0.866477 0.624908
57 1 0.875 0.875 0.625
60 1 0.761357 0.813983 0.449411
51 1 0.261967 0.482887 0.738458
55 1 0.377134 0.615964 0.896974
59 1 0.749608 0.508511 0.728857
61 1 0.875 0.625 0.875
50 1 0 0.75 0.75
54 1 0.125 0.875 0.875
58 1 0.481395 0.757742 0.781463
62 1 0.625 0.875 0.875
ITEM: TIMESTEP
600
ITEM: NUMBER OF ATOMS
62
ITEM: BOX BOUNDS pp pp pp
0.0000000000000000e+00 1.0859999999999999e+01
0.0000000000000000e+00 1.0859999999999999e+01
0.0000000000000000e+00 1.0859999999999999e+01
ITEM: ATOMS id type xs ys zs
1 1 0 0 0
5 1 0.125 0.125 0.125
9 1 0.5 0 0
13 1 0.625 0.125 0.125
4 1 0.25 0.25 0
8 1 0.380943 0.377818 0.127249
12 1 0.75 0.25 0
16 1 0.875 0.375 0.125
3 1 0.25 0 0.25
7 1 0.353225 0.134174 0.390079
11 1 0.75 0 0.25
15 1 0.875 0.125 0.375
2 1 0 0.25 0.25
6 1 0.120702 0.406118 0.378344
10 1 0.485931 0.245362 0.255762
14 1 0.576285 0.399198 0.370128
41 1 0.523348 0.49647 0.00626925
43 1 0.75285 0.495369 0.26582
28 1 0.711112 0.2588 0.485796
17 1 0 0 0.5
21 1 0.125 0.125 0.625
25 1 0.484307 0.015439 0.519675
29 1 0.631871 0.125318 0.620962
20 1 0.239167 0.275216 0.509527
24 1 0.390369 0.359255 0.63763
51 1 0.259547 0.484668 0.734302
32 1 0.848134 0.360878 0.616489
19 1 0.25 0 0.75
23 1 0.375 0.125 0.875
27 1 0.75 0 0.75
31 1 0.875 0.125 0.875
18 1 0 0.25 0.75
22 1 0.125 0.375 0.875
26 1 0.525021 0.239737 0.767095
30 1 0.65415 0.3928 0.864616
33 1 0 0.5 0
37 1 0.125 0.625 0.125
46 1 0.581278 0.919161 0.349251
45 1 0.643819 0.628625 0.131298
36 1 0.25 0.75 0
40 1 0.375 0.875 0.125
44 1 0.75 0.75 0
48 1 0.875 0.875 0.125
35 1 0.266972 0.502674 0.2581
39 1 0.402172 0.598286 0.38727
42 1 0.49693 0.753921 0.243507
47 1 0.862745 0.640838 0.371899
34 1 0 0.75 0.25
38 1 0.125 0.875 0.375
49 1 0.961043 0.501681 0.492707
60 1 0.758146 0.82017 0.436573
58 1 0.481479 0.7641 0.779037
53 1 0.123277 0.595616 0.615915
52 1 0.245648 0.733854 0.500315
56 1 0.36279 0.865758 0.629054
57 1 0.875 0.875 0.625
54 1 0.125 0.875 0.875
62 1 0.625 0.875 0.875
55 1 0.375501 0.608464 0.892068
59 1 0.754724 0.510859 0.730447
61 1 0.875 0.625 0.875
50 1 0 0.75 0.75
ITEM: TIMESTEP
700
ITEM: NUMBER OF ATOMS
62
ITEM: BOX BOUNDS pp pp pp
0.0000000000000000e+00 1.0859999999999999e+01
0.0000000000000000e+00 1.0859999999999999e+01
0.0000000000000000e+00 1.0859999999999999e+01
ITEM: ATOMS id type xs ys zs
1 1 0 0 0
5 1 0.125 0.125 0.125
9 1 0.5 0 0
13 1 0.625 0.125 0.125
4 1 0.25 0.25 0
8 1 0.37943 0.371113 0.133651
12 1 0.75 0.25 0
16 1 0.875 0.375 0.125
3 1 0.25 0 0.25
7 1 0.360608 0.134494 0.382988
11 1 0.75 0 0.25
15 1 0.875 0.125 0.375
2 1 0 0.25 0.25
6 1 0.117063 0.406298 0.384907
10 1 0.486495 0.234729 0.247351
14 1 0.564057 0.413768 0.373022
41 1 0.524649 0.492672 0.000436009
43 1 0.740126 0.504039 0.270922
28 1 0.707606 0.259252 0.482803
17 1 0 0 0.5
21 1 0.125 0.125 0.625
25 1 0.471702 0.0177216 0.517823
29 1 0.624169 0.120001 0.63392
20 1 0.241635 0.277275 0.509648
24 1 0.391872 0.358663 0.637399
51 1 0.255364 0.488485 0.738405
32 1 0.857887 0.372333 0.618872
19 1 0.25 0 0.75
23 1 0.375 0.125 0.875
27 1 0.75 0 0.75
31 1 0.875 0.125 0.875
18 1 0 0.25 0.75
22 1 0.125 0.375 0.875
26 1 0.527711 0.241671 0.763946
30 1 0.649322 0.386193 0.86799
33 1 0 0.5 0
37 1 0.125 0.625 0.125
46 1 0.575946 0.922389 0.346824
45 1 0.637444 0.624755 0.13731
36 1 0.25 0.75 0
40 1 0.375 0.875 0.125
44 1 0.75 0.75 0
48 1 0.875 0.875 0.125
35 1 0.260026 0.501974 0.257207
39 1 0.411421 0.599018 0.384934
42 1 0.478408 0.75283 0.247709
47 1 0.874829 0.639582 0.369485
34 1 0 0.75 0.25
38 1 0.125 0.875 0.375
49 1 0.96607 0.507434 0.496462
60 1 0.755476 0.826633 0.42577
58 1 0.47832 0.766752 0.773634
53 1 0.118903 0.594219 0.61445
52 1 0.241995 0.725842 0.499672
56 1 0.370873 0.866001 0.633269
57 1 0.875 0.875 0.625
54 1 0.125 0.875 0.875
62 1 0.625 0.875 0.875
55 1 0.373045 0.60147 0.883116
59 1 0.760991 0.517589 0.731628
61 1 0.875 0.625 0.875
50 1 0 0.75 0.75
ITEM: TIMESTEP
800
ITEM: NUMBER OF ATOMS
62
ITEM: BOX BOUNDS pp pp pp
0.0000000000000000e+00 1.0859999999999999e+01
0.0000000000000000e+00 1.0859999999999999e+01
0.0000000000000000e+00 1.0859999999999999e+01
ITEM: ATOMS id type xs ys zs
1 1 0 0 0
5 1 0.125 0.125 0.125
9 1 0.5 0 0
13 1 0.625 0.125 0.125
4 1 0.25 0.25 0
8 1 0.376787 0.365835 0.134229
12 1 0.75 0.25 0
16 1 0.875 0.375 0.125
3 1 0.25 0 0.25
7 1 0.365028 0.134764 0.376321
11 1 0.75 0 0.25
15 1 0.875 0.125 0.375
2 1 0 0.25 0.25
6 1 0.112645 0.400181 0.388848
10 1 0.489876 0.227924 0.241865
14 1 0.552498 0.427326 0.37571
41 1 0.521824 0.490282 -0.00214178
43 1 0.73097 0.509306 0.274319
28 1 0.708185 0.259973 0.480438
17 1 0 0 0.5
21 1 0.125 0.125 0.625
25 1 0.46261 0.0165843 0.515529
29 1 0.61623 0.115311 0.641372
20 1 0.243607 0.274933 0.508614
24 1 0.394131 0.358714 0.636626
51 1 0.25085 0.490168 0.746662
32 1 0.86809 0.379318 0.619862
19 1 0.25 0 0.75
23 1 0.375 0.125 0.875
27 1 0.75 0 0.75
31 1 0.875 0.125 0.875
18 1 0 0.25 0.75
22 1 0.125 0.375 0.875
26 1 0.524201 0.247188 0.76273
30 1 0.64393 0.378046 0.871191
33 1 0 0.5 0
37 1 0.125 0.625 0.125
46 1 0.568024 0.923623 0.347413
45 1 0.624066 0.623875 0.140518
36 1 0.25 0.75 0
40 1 0.375 0.875 0.125
44 1 0.75 0.75 0
48 1 0.875 0.875 0.125
35 1 0.252279 0.503468 0.255174
39 1 0.419542 0.598255 0.383064
42 1 0.466949 0.747383 0.254585
47 1 0.879 0.64123 0.368681
34 1 0 0.75 0.25
38 1 0.125 0.875 0.375
49 1 0.974962 0.510656 0.502241
60 1 0.756187 0.831001 0.418027
58 1 0.476109 0.76277 0.770446
53 1 0.113428 0.599537 0.61637
52 1 0.243312 0.719659 0.497552
56 1 0.373189 0.867205 0.632133
57 1 0.875 0.875 0.625
54 1 0.125 0.875 0.875
62 1 0.625 0.875 0.875
55 1 0.371192 0.599346 0.873503
59 1 0.764206 0.524638 0.734789
61 1 0.875 0.625 0.875
50 1 0 0.75 0.75
ITEM: TIMESTEP
900
ITEM: NUMBER OF ATOMS
62
ITEM: BOX BOUNDS pp pp pp
0.0000000000000000e+00 1.0859999999999999e+01
0.0000000000000000e+00 1.0859999999999999e+01
0.0000000000000000e+00 1.0859999999999999e+01
ITEM: ATOMS id type xs ys zs
1 1 0 0 0
5 1 0.125 0.125 0.125
9 1 0.5 0 0
13 1 0.625 0.125 0.125
4 1 0.25 0.25 0
8 1 0.373617 0.364363 0.129138
12 1 0.75 0.25 0
16 1 0.875 0.375 0.125
3 1 0.25 0 0.25
7 1 0.363472 0.134963 0.371453
11 1 0.75 0 0.25
15 1 0.875 0.125 0.375
2 1 0 0.25 0.25
6 1 0.110125 0.388713 0.388131
10 1 0.495465 0.232285 0.243059
14 1 0.547961 0.428389 0.377473
41 1 0.512684 0.489302 -0.00134042
43 1 0.728932 0.509532 0.274792
28 1 0.710179 0.264063 0.480243
17 1 0 0 0.5
21 1 0.125 0.125 0.625
25 1 0.460153 0.0137269 0.514303
29 1 0.609102 0.112408 0.639328
20 1 0.2456 0.267944 0.506603
24 1 0.393823 0.362315 0.635643
51 1 0.245635 0.487737 0.752021
32 1 0.873241 0.379688 0.620129
19 1 0.25 0 0.75
23 1 0.375 0.125 0.875
27 1 0.75 0 0.75
31 1 0.875 0.125 0.875
18 1 0 0.25 0.75
22 1 0.125 0.375 0.875
26 1 0.513215 0.25346 0.763315
30 1 0.641238 0.372995 0.872689
33 1 0 0.5 0
37 1 0.125 0.625 0.125
46 1 0.558656 0.922001 0.349919
45 1 0.606318 0.626834 0.139319
36 1 0.25 0.75 0
40 1 0.375 0.875 0.125
44 1 0.75 0.75 0
48 1 0.875 0.875 0.125
35 1 0.245907 0.505016 0.254474
39 1 0.418049 0.594815 0.385717
42 1 0.465041 0.743799 0.25885
47 1 0.873631 0.642604 0.371483
34 1 0 0.75 0.25
38 1 0.125 0.875 0.375
49 1 0.983762 0.511932 0.504862
60 1 0.760418 0.833604 0.41438
58 1 0.477507 0.753971 0.770202
53 1 0.112431 0.612465 0.625372
52 1 0.249933 0.716933 0.494099
56 1 0.366921 0.867147 0.625742
57 1 0.875 0.875 0.625
54 1 0.125 0.875 0.875
62 1 0.625 0.875 0.875
55 1 0.372045 0.603958 0.86857
59 1 0.762196 0.526798 0.738365
61 1 0.875 0.625 0.875
50 1 0 0.75 0.75
ITEM: TIMESTEP
1000
ITEM: NUMBER OF ATOMS
62
ITEM: BOX BOUNDS pp pp pp
0.0000000000000000e+00 1.0859999999999999e+01
0.0000000000000000e+00 1.0859999999999999e+01
0.0000000000000000e+00 1.0859999999999999e+01
ITEM: ATOMS id type xs ys zs
1 1 0 0 0
5 1 0.125 0.125 0.125
9 1 0.5 0 0
13 1 0.625 0.125 0.125
4 1 0.25 0.25 0
8 1 0.371141 0.367379 0.122266
12 1 0.75 0.25 0
16 1 0.875 0.375 0.125
3 1 0.25 0 0.25
7 1 0.358677 0.134795 0.36863
11 1 0.75 0 0.25
15 1 0.875 0.125 0.375
2 1 0 0.25 0.25
6 1 0.110741 0.375149 0.383037
10 1 0.5006 0.247564 0.249988
14 1 0.553574 0.416656 0.379181
41 1 0.498131 0.489112 0.000669845
43 1 0.73156 0.506067 0.269347
28 1 0.712333 0.270703 0.483052
17 1 0 0 0.5
21 1 0.125 0.125 0.625
25 1 0.462413 0.0113407 0.513689
29 1 0.603541 0.114188 0.630782
20 1 0.248041 0.257413 0.504393
24 1 0.388226 0.371136 0.632969
51 1 0.241558 0.485177 0.751261
32 1 0.871554 0.375526 0.620116
19 1 0.25 0 0.75
23 1 0.375 0.125 0.875
27 1 0.75 0 0.75
31 1 0.875 0.125 0.875
18 1 0 0.25 0.75
22 1 0.125 0.375 0.875
26 1 0.49892 0.255851 0.763509
30 1 0.640127 0.374075 0.872956
33 1 0 0.5 0
37 1 0.125 0.625 0.125
46 1 0.552569 0.917 0.3524
45 1 0.591753 0.630373 0.135524
36 1 0.25 0.75 0
40 1 0.375 0.875 0.125
44 1 0.75 0.75 0
48 1 0.875 0.875 0.125
35 1 0.242431 0.503695 0.255933
39 1 0.406176 0.588489 0.39229
42 1 0.469431 0.744651 0.259151
47 1 0.862441 0.642373 0.377708
34 1 0 0.75 0.25
38 1 0.125 0.875 0.375
49 1 0.99175 0.512277 0.503646
60 1 0.766139 0.835671 0.415091
58 1 0.482469 0.747379 0.767405
53 1 0.117521 0.628633 0.637913
52 1 0.258251 0.718676 0.49102
56 1 0.355702 0.862468 0.619415
57 1 0.875 0.875 0.625
54 1 0.125 0.875 0.875
62 1 0.625 0.875 0.875
55 1 0.373319 0.611104 0.871091
59 1 0.7552 0.521087 0.740716
61 1 0.875 0.625 0.875
50 1 0 0.75 0.75
ITEM: TIMESTEP
1100
ITEM: NUMBER OF ATOMS
62
ITEM: BOX BOUNDS pp pp pp
0.0000000000000000e+00 1.0859999999999999e+01
0.0000000000000000e+00 1.0859999999999999e+01
0.0000000000000000e+00 1.0859999999999999e+01
ITEM: ATOMS id type xs ys zs
1 1 0 0 0
5 1 0.125 0.125 0.125
9 1 0.5 0 0
13 1 0.625 0.125 0.125
4 1 0.25 0.25 0
8 1 0.368861 0.373458 0.119268
12 1 0.75 0.25 0
16 1 0.875 0.375 0.125
3 1 0.25 0 0.25
7 1 0.356825 0.134512 0.367156
11 1 0.75 0 0.25
15 1 0.875 0.125 0.375
2 1 0 0.25 0.25
6 1 0.115019 0.364229 0.377008
10 1 0.502715 0.264533 0.256947
14 1 0.565863 0.4037 0.381963
41 1 0.483186 0.490248 0.00108229
43 1 0.734448 0.502144 0.258755
28 1 0.71648 0.273998 0.488906
17 1 0 0 0.5
21 1 0.125 0.125 0.625
25 1 0.463898 0.00916885 0.512834
29 1 0.601791 0.12212 0.621382
20 1 0.249855 0.246646 0.50313
24 1 0.377395 0.382621 0.627694
51 1 0.241289 0.488209 0.746896
32 1 0.866547 0.371427 0.619622
19 1 0.25 0 0.75
23 1 0.375 0.125 0.875
27 1 0.75 0 0.75
31 1 0.875 0.125 0.875
18 1 0 0.25 0.75
22 1 0.125 0.375 0.875
26 1 0.487402 0.255518 0.761492
30 1 0.636521 0.379696 0.872806
33 1 0 0.5 0
37 1 0.125 0.625 0.125
46 1 0.554252 0.909691 0.353921
45 1 0.586441 0.63135 0.128698
36 1 0.25 0.75 0
40 1 0.375 0.875 0.125
44 1 0.75 0.75 0
48 1 0.875 0.875 0.125
35 1 0.242028 0.498379 0.258495
39 1 0.391202 0.579768 0.3975
42 1 0.473412 0.746029 0.260001
47 1 0.851456 0.640312 0.384548
34 1 0 0.75 0.25
38 1 0.125 0.875 0.375
49 1 0.998863 0.512759 0.501879
60 1 0.770688 0.838323 0.41933
58 1 0.49015 0.746215 0.759005
53 1 0.128458 0.639392 0.64499
52 1 0.262847 0.72388 0.488201
56 1 0.345887 0.855786 0.617226
57 1 0.875 0.875 0.625
54 1 0.125 0.875 0.875
62 1 0.625 0.875 0.875
55 1 0.370681 0.616612 0.878928
59 1 0.746179 0.509093 0.742741
61 1 0.875 0.625 0.875
50 1 0 0.75 0.75
ITEM: TIMESTEP
1200
ITEM: NUMBER OF ATOMS
62
ITEM: BOX BOUNDS pp pp pp
0.0000000000000000e+00 1.0859999999999999e+01
0.0000000000000000e+00 1.0859999999999999e+01
0.0000000000000000e+00 1.0859999999999999e+01
ITEM: ATOMS id type xs ys zs
1 1 0 0 0
5 1 0.125 0.125 0.125
9 1 0.5 0 0
13 1 0.625 0.125 0.125
4 1 0.25 0.25 0
8 1 0.364382 0.378434 0.123334
12 1 0.75 0.25 0
16 1 0.875 0.375 0.125
3 1 0.25 0 0.25
7 1 0.361808 0.134034 0.365952
11 1 0.75 0 0.25
15 1 0.875 0.125 0.375
2 1 0 0.25 0.25
6 1 0.122558 0.358823 0.374088
10 1 0.498714 0.271255 0.255455
14 1 0.581687 0.403526 0.390389
41 1 0.475089 0.494231 -0.00185592
43 1 0.735108 0.499701 0.246381
28 1 0.722998 0.271058 0.495299
17 1 0 0 0.5
21 1 0.125 0.125 0.625
25 1 0.462147 0.00663673 0.51108
29 1 0.60444 0.134244 0.615376
20 1 0.249502 0.240304 0.503751
24 1 0.364857 0.390719 0.619804
51 1 0.243935 0.497295 0.745022
32 1 0.862374 0.370479 0.618877
19 1 0.25 0 0.75
23 1 0.375 0.125 0.875
27 1 0.75 0 0.75
31 1 0.875 0.125 0.875
18 1 0 0.25 0.75
22 1 0.125 0.375 0.875
26 1 0.482055 0.257174 0.755171
30 1 0.62684 0.38439 0.874515
33 1 0 0.5 0
37 1 0.125 0.625 0.125
46 1 0.565388 0.90275 0.356067
45 1 0.590731 0.629381 0.119405
36 1 0.25 0.75 0
40 1 0.375 0.875 0.125
44 1 0.75 0.75 0
48 1 0.875 0.875 0.125
35 1 0.243095 0.490462 0.259833
39 1 0.382953 0.5674 0.399286
42 1 0.473449 0.742864 0.262103
47 1 0.844424 0.636065 0.38889
34 1 0 0.75 0.25
38 1 0.125 0.875 0.375
49 1 1.00482 0.513001 0.501022
60 1 0.772917 0.841982 0.426188
58 1 0.497328 0.747423 0.747923
53 1 0.143294 0.643099 0.642137
52 1 0.259159 0.729275 0.483169
56 1 0.343694 0.852981 0.621968
57 1 0.875 0.875 0.625
54 1 0.125 0.875 0.875
62 1 0.625 0.875 0.875
55 1 0.364332 0.622456 0.88452
59 1 0.739298 0.49575 0.745028
61 1 0.875 0.625 0.875
50 1 0 0.75 0.75
ITEM: TIMESTEP
1300
ITEM: NUMBER OF ATOMS
62
ITEM: BOX BOUNDS pp pp pp
0.0000000000000000e+00 1.0859999999999999e+01
0.0000000000000000e+00 1.0859999999999999e+01
0.0000000000000000e+00 1.0859999999999999e+01
ITEM: ATOMS id type xs ys zs
1 1 0 0 0
5 1 0.125 0.125 0.125
9 1 0.5 0 0
13 1 0.625 0.125 0.125
4 1 0.25 0.25 0
8 1 0.359079 0.379943 0.130463
12 1 0.75 0.25 0
16 1 0.875 0.375 0.125
3 1 0.25 0 0.25
7 1 0.371357 0.133021 0.364617
11 1 0.75 0 0.25
15 1 0.875 0.125 0.375
2 1 0 0.25 0.25
6 1 0.130065 0.358714 0.375864
10 1 0.491541 0.269545 0.248425
14 1 0.59549 0.415348 0.400556
41 1 0.474839 0.499943 -0.00593483
43 1 0.733336 0.499708 0.235382
28 1 0.731107 0.262853 0.498694
17 1 0 0 0.5
21 1 0.125 0.125 0.625
25 1 0.46074 0.00447053 0.509011
29 1 0.608731 0.144735 0.614774
20 1 0.248114 0.239679 0.505088
24 1 0.354863 0.393546 0.609078
51 1 0.247953 0.50827 0.749981
32 1 0.862695 0.373611 0.619553
19 1 0.25 0 0.75
23 1 0.375 0.125 0.875
27 1 0.75 0 0.75
31 1 0.875 0.125 0.875
18 1 0 0.25 0.75
22 1 0.125 0.375 0.875
26 1 0.481839 0.262319 0.745053
30 1 0.611307 0.383429 0.879169
33 1 0 0.5 0
37 1 0.125 0.625 0.125
46 1 0.582463 0.896768 0.35989
45 1 0.601372 0.626485 0.110912
36 1 0.25 0.75 0
40 1 0.375 0.875 0.125
44 1 0.75 0.75 0
48 1 0.875 0.875 0.125
35 1 0.242948 0.483668 0.257919
39 1 0.386278 0.552621 0.400413
42 1 0.471056 0.733526 0.263802
47 1 0.842032 0.630663 0.38941
34 1 0 0.75 0.25
38 1 0.125 0.875 0.375
49 1 1.00967 0.512345 0.500953
60 1 0.774066 0.844779 0.43476
58 1 0.502035 0.748339 0.738327
53 1 0.153758 0.644117 0.632126
52 1 0.250869 0.733254 0.475314
56 1 0.349468 0.854628 0.631129
57 1 0.875 0.875 0.625
54 1 0.125 0.875 0.875
62 1 0.625 0.875 0.875
55 1 0.358809 0.629507 0.881228
59 1 0.737247 0.486529 0.747207
61 1 0.875 0.625 0.875
50 1 0 0.75 0.75
ITEM: TIMESTEP
1400
ITEM: NUMBER OF ATOMS
62
ITEM: BOX BOUNDS pp pp pp
0.0000000000000000e+00 1.0859999999999999e+01
0.0000000000000000e+00 1.0859999999999999e+01
0.0000000000000000e+00 1.0859999999999999e+01
ITEM: ATOMS id type xs ys zs
1 1 0 0 0
5 1 0.125 0.125 0.125
9 1 0.5 0 0
13 1 0.625 0.125 0.125
4 1 0.25 0.25 0
8 1 0.35755 0.378088 0.131771
12 1 0.75 0.25 0
16 1 0.875 0.375 0.125
3 1 0.25 0 0.25
7 1 0.379656 0.131599 0.364085
11 1 0.75 0 0.25
15 1 0.875 0.125 0.375
2 1 0 0.25 0.25
6 1 0.132285 0.362153 0.381136
10 1 0.489265 0.265838 0.244456
14 1 0.605533 0.428084 0.404696
41 1 0.477182 0.506122 -0.00725454
43 1 0.730464 0.50185 0.22908
28 1 0.74129 0.254757 0.496591
17 1 0 0 0.5
21 1 0.125 0.125 0.625
25 1 0.46392 0.00260549 0.507669
29 1 0.612132 0.14684 0.620272
20 1 0.248242 0.241075 0.504067
24 1 0.350014 0.398867 0.593919
51 1 0.251271 0.514945 0.758784
32 1 0.868712 0.378611 0.621696
19 1 0.25 0 0.75
23 1 0.375 0.125 0.875
27 1 0.75 0 0.75
31 1 0.875 0.125 0.875
18 1 0 0.25 0.75
22 1 0.125 0.375 0.875
26 1 0.483191 0.269345 0.73396
30 1 0.595277 0.376692 0.883121
33 1 0 0.5 0
37 1 0.125 0.625 0.125
46 1 0.596385 0.89062 0.364286
45 1 0.613858 0.624378 0.105519
36 1 0.25 0.75 0
40 1 0.375 0.875 0.125
44 1 0.75 0.75 0
48 1 0.875 0.875 0.125
35 1 0.240405 0.483684 0.254505
39 1 0.395068 0.536905 0.40745
42 1 0.470849 0.721101 0.264396
47 1 0.844378 0.626387 0.385688
34 1 0 0.75 0.25
38 1 0.125 0.875 0.375
49 1 1.01313 0.51075 0.501218
60 1 0.777244 0.842568 0.444285
58 1 0.505184 0.7481 0.733539
53 1 0.15294 0.642974 0.621329
52 1 0.247822 0.736707 0.466141
56 1 0.358884 0.857793 0.637638
57 1 0.875 0.875 0.625
54 1 0.125 0.875 0.875
62 1 0.625 0.875 0.875
55 1 0.360891 0.636885 0.869924
59 1 0.738598 0.483154 0.751348
61 1 0.875 0.625 0.875
50 1 0 0.75 0.75
ITEM: TIMESTEP
1500
ITEM: NUMBER OF ATOMS
62
ITEM: BOX BOUNDS pp pp pp
0.0000000000000000e+00 1.0859999999999999e+01
0.0000000000000000e+00 1.0859999999999999e+01
0.0000000000000000e+00 1.0859999999999999e+01
ITEM: ATOMS id type xs ys zs
1 1 0 0 0
5 1 0.125 0.125 0.125
9 1 0.5 0 0
13 1 0.625 0.125 0.125
4 1 0.25 0.25 0
8 1 0.36079 0.37548 0.124774
12 1 0.75 0.25 0
16 1 0.875 0.375 0.125
3 1 0.25 0 0.25
7 1 0.382913 0.129148 0.365353
11 1 0.75 0 0.25
15 1 0.875 0.125 0.375
2 1 0 0.25 0.25
6 1 0.12714 0.368143 0.386717
10 1 0.498226 0.2661 0.24871
14 1 0.611737 0.43172 0.398519
41 1 0.47797 0.512939 -0.00516519
43 1 0.729581 0.503773 0.230161
28 1 0.751745 0.250995 0.491507
17 1 0 0 0.5
21 1 0.125 0.125 0.625
25 1 0.473521 0.000766712 0.507882
29 1 0.615337 0.139929 0.627506
20 1 0.250857 0.240684 0.499734
24 1 0.349397 0.408621 0.58117
51 1 0.250436 0.513623 0.762212
32 1 0.87836 0.382686 0.623647
19 1 0.25 0 0.75
23 1 0.375 0.125 0.875
27 1 0.75 0 0.75
31 1 0.875 0.125 0.875
18 1 0 0.25 0.75
22 1 0.125 0.375 0.875
26 1 0.482367 0.27608 0.723683
30 1 0.584673 0.367145 0.88418
33 1 0 0.5 0
37 1 0.125 0.625 0.125
46 1 0.601162 0.884211 0.367266
45 1 0.623438 0.62413 0.103628
36 1 0.25 0.75 0
40 1 0.375 0.875 0.125
44 1 0.75 0.75 0
48 1 0.875 0.875 0.125
35 1 0.237683 0.491143 0.252208
39 1 0.401207 0.528531 0.416264
42 1 0.474804 0.70819 0.264068
47 1 0.851056 0.624674 0.378444
34 1 0 0.75 0.25
38 1 0.125 0.875 0.375
49 1 1.01398 0.50867 0.501431
60 1 0.784243 0.831586 0.452655
58 1 0.509455 0.746606 0.73509
53 1 0.142196 0.637612 0.614333
52 1 0.257878 0.735724 0.458814
56 1 0.36724 0.861455 0.63636
57 1 0.875 0.875 0.625
54 1 0.125 0.875 0.875
62 1 0.625 0.875 0.875
55 1 0.372994 0.646118 0.858261
59 1 0.741182 0.483728 0.759133
61 1 0.875 0.625 0.875
50 1 0 0.75 0.75
ITEM: TIMESTEP
1600
ITEM: NUMBER OF ATOMS
62
ITEM: BOX BOUNDS pp pp pp
0.0000000000000000e+00 1.0859999999999999e+01
0.0000000000000000e+00 1.0859999999999999e+01
0.0000000000000000e+00 1.0859999999999999e+01
ITEM: ATOMS id type xs ys zs
1 1 0 0 0
5 1 0.125 0.125 0.125
9 1 0.5 0 0
13 1 0.625 0.125 0.125
4 1 0.25 0.25 0
8 1 0.368128 0.375394 0.116646
12 1 0.75 0.25 0
16 1 0.875 0.375 0.125
3 1 0.25 0 0.25
7 1 0.381868 0.125824 0.367889
20 1 0.254274 0.239595 0.494062
11 1 0.75 0 0.25
15 1 0.875 0.125 0.375
2 1 0 0.25 0.25
6 1 0.118772 0.37446 0.3884
35 1 0.238338 0.499973 0.25157
10 1 0.513476 0.269917 0.25701
14 1 0.615728 0.423825 0.387302
28 1 0.757323 0.254459 0.488553
17 1 0 0 0.5
21 1 0.125 0.125 0.625
29 1 0.619725 0.12828 0.63172
24 1 0.350645 0.416945 0.576929
26 1 0.478237 0.280369 0.71473
32 1 0.887362 0.384455 0.625147
19 1 0.25 0 0.75
23 1 0.375 0.125 0.875
27 1 0.75 0 0.75
31 1 0.875 0.125 0.875
18 1 0 0.25 0.75
22 1 0.125 0.375 0.875
30 1 0.581401 0.358742 0.884547
59 1 0.744533 0.485507 0.768942
33 1 0 0.5 0
37 1 0.125 0.625 0.125
45 1 0.626549 0.625222 0.10581
43 1 0.73397 0.504203 0.237111
36 1 0.25 0.75 0
40 1 0.375 0.875 0.125
44 1 0.75 0.75 0
48 1 0.875 0.875 0.125
39 1 0.404953 0.532294 0.418994
42 1 0.482208 0.697689 0.262993
52 1 0.277384 0.729881 0.458395
47 1 0.861627 0.625427 0.369388
34 1 0 0.75 0.25
38 1 0.125 0.875 0.375
46 1 0.600832 0.876936 0.368515
60 1 0.789912 0.811424 0.45459
53 1 0.128217 0.630975 0.610747